ITEM: TIMESTEP
120
ITEM: NUMBER OF ATOMS
383
ITEM: BOX BOUNDS pp pp pp
0.0000000000000000e+00 8.4283000000000001e+00
0.0000000000000000e+00 1.4598200000000000e+01
0.0000000000000000e+00 4.9476269000000002e+01
ITEM: ATOMS id type x y z c_peatom
61 1 2.92401 12.1652 3.61953 -2.2941
62 1 7.13816 4.86606 3.61953 -2.29409
63 1 5.73344 7.2991 5.31004 -6.5982
64 1 7.13816 9.73214 3.61953 -2.29409
65 1 5.73344 12.1652 5.31004 -6.5982
66 1 7.13816 0 3.61953 -2.29408
67 1 5.73344 2.43304 5.31004 -6.5982
68 1 2.92401 7.2991 3.61953 -2.29408
69 1 1.51929 9.73212 5.31004 -6.59819
70 1 2.92401 2.43304 3.61953 -2.29408
71 1 1.51929 4.86606 5.31004 -6.5982
72 1 1.51929 0 5.31004 -6.59819
73 1 0.114574 7.2991 5.80124 -6.54405
74 1 4.32872 9.73212 5.80124 -6.54404
75 1 2.92401 7.2991 7.4917 -6.40207
76 1 0.114574 12.1652 5.80124 -6.54405
77 1 7.13816 9.73214 7.4917 -6.40206
78 1 4.32872 0 5.80124 -6.54405
79 1 2.92401 12.1652 7.4917 -6.40208
80 1 0.114574 2.43304 5.80124 -6.54404
81 1 7.13816 0 7.4917 -6.40207
82 1 4.32872 4.86606 5.80124 -6.54403
83 1 2.92401 2.43304 7.4917 -6.40207
84 1 7.13816 4.86606 7.4917 -6.40206
85 1 5.73344 12.1652 7.98285 -6.40205
88 1 5.73344 7.2991 7.98285 -6.40204
89 1 1.51929 9.73212 7.98285 -6.40204
92 1 5.73344 2.43304 7.98285 -6.40204
93 1 1.51929 4.86606 7.98285 -6.40204
95 1 1.51929 0 7.98285 -6.40204
97 1 4.32872 9.73212 3.12833 -3.27315
98 1 4.32872 4.86606 3.12833 -3.27316
99 1 0.114574 12.1652 3.12833 -3.27315
100 1 0.114574 2.43304 3.12833 -3.27315
101 1 0.114574 7.2991 3.12833 -3.27315
102 1 4.32872 0 3.12833 -3.27314
330 2 3.03858 10.477 4.46474 -3.32409
331 2 1.40472 12.91 4.46474 -3.32409
332 2 4.32872 13.1085 4.46474 -3.32408
333 2 7.25273 3.1779 4.46474 -3.32408
334 2 0.114574 5.80937 4.46474 -3.32409
335 2 5.61887 5.61093 4.46474 -3.32408
336 2 0.114574 10.6754 4.46474 -3.32409
337 2 5.61887 10.477 4.46474 -3.32408
338 2 7.25273 8.04396 4.46474 -3.32409
339 2 0.114574 0.943306 4.46474 -3.32409
340 2 5.61887 0.744873 4.46474 -3.32408
341 2 7.25273 12.91 4.46474 -3.32408
342 2 1.40472 8.04396 4.46474 -3.32407
343 2 4.32872 8.24241 4.46474 -3.32408
344 2 3.03858 5.61092 4.46474 -3.32409
345 2 1.40472 3.1779 4.46474 -3.32408
346 2 4.32872 3.37635 4.46474 -3.32409
347 2 3.03858 0.744859 4.46474 -3.32408
348 2 0.22914 8.98727 6.64644 -4.12705
349 2 7.02359 6.55424 6.64644 -4.12705
350 2 1.51929 6.35579 6.64644 -4.12705
351 2 5.73344 8.78883 6.64644 -4.12705
352 2 2.80944 8.98727 6.64644 -4.12704
353 2 4.44329 11.4203 6.64644 -4.12706
354 2 0.22914 13.8533 6.64644 -4.12706
355 2 7.02359 11.4203 6.64644 -4.12704
356 2 1.51929 11.2219 6.64644 -4.12706
357 2 4.44329 1.68816 6.64644 -4.12706
358 2 5.73344 13.6549 6.64644 -4.12705
359 2 2.80944 13.8533 6.64644 -4.12705
360 2 0.22914 4.1212 6.64644 -4.12705
361 2 1.51929 1.48973 6.64644 -4.12705
362 2 7.02359 1.68816 6.64644 -4.12705
363 2 2.80944 4.1212 6.64644 -4.12704
364 2 5.73344 3.92275 6.64644 -4.12704
365 2 4.44329 6.55424 6.64644 -4.12706
25 1 5.73344 2.43304 14.5279 -6.40183
26 1 4.32872 4.86606 16.2184 -6.22805
27 1 5.73344 12.1652 14.5279 -6.4025
28 1 5.73344 7.2991 14.5279 -6.3983
29 1 4.32872 9.73212 16.2184 -6.27654
30 1 1.51928 4.86606 14.5279 -6.40144
31 1 0.114574 2.43304 16.2184 -6.40752
32 1 1.51928 0 14.5279 -6.40131
33 1 0.114574 12.1652 16.2184 -6.38216
34 1 1.51928 9.73212 14.5279 -6.40105
35 1 0.114574 7.2991 16.2184 -6.38629
36 1 4.32872 0 16.2184 -6.41757
37 1 2.92401 12.1652 10.1646 -6.40196
38 1 2.92401 7.2991 10.1646 -6.40195
39 1 1.51929 9.73212 11.855 -6.4021
40 1 7.13816 4.86606 10.1646 -6.40194
41 1 5.73344 2.43304 11.855 -6.40212
42 1 7.13816 0 10.1646 -6.40195
43 1 5.73344 12.1652 11.855 -6.40212
44 1 7.13816 9.73214 10.1646 -6.40194
45 1 5.73344 7.2991 11.855 -6.40212
46 1 2.92401 2.43304 10.1646 -6.40195
47 1 1.51929 0 11.855 -6.40212
48 1 1.51929 4.86606 11.855 -6.4021
49 1 4.32872 0 12.3462 -6.40196
50 1 2.92401 2.43304 14.0367 -6.38598
51 1 7.13816 0 14.0367 -6.38709
52 1 0.114574 7.2991 12.3462 -6.40197
53 1 0.114574 2.43304 12.3462 -6.40196
54 1 7.13816 4.86606 14.0367 -6.38309
55 1 4.32872 4.86606 12.3462 -6.40196
56 1 2.92401 7.2991 14.0367 -6.38015
57 1 0.114574 12.1652 12.3462 -6.40197
58 1 4.32872 9.73212 12.3462 -6.40196
59 1 7.13816 9.73214 14.0367 -6.38499
60 1 2.92401 12.1652 14.0367 -6.38427
86 1 0.114574 12.1652 9.67335 -6.40208
87 1 4.32872 9.73212 9.67335 -6.40207
90 1 0.114574 7.2991 9.67335 -6.40207
91 1 4.32872 4.86606 9.67335 -6.40207
94 1 0.114574 2.43304 9.67335 -6.40207
96 1 4.32872 0 9.67335 -6.40207
276 2 5.84801 4.1212 15.3731 -4.12743
277 2 7.13816 1.48973 15.3731 -4.12743
278 2 4.21415 1.68818 15.3731 -4.12744
279 2 5.84801 13.8533 15.3731 -4.12743
280 2 7.13816 11.2219 15.3731 -4.12743
281 2 4.21415 11.4203 15.3731 -4.12745
282 2 5.84801 8.98727 15.3731 -4.12743
283 2 7.13816 6.35579 15.3731 -4.12739
284 2 4.21415 6.55424 15.3731 -4.12745
285 2 0 4.1212 15.3731 -4.12742
286 2 2.92401 3.92275 15.3731 -4.12744
287 2 1.63386 6.55424 15.3731 -4.12738
288 2 1.63386 1.68816 15.3731 -4.12743
289 2 0 13.8533 15.3731 -4.12744
290 2 2.92401 13.6549 15.3731 -4.12745
291 2 0 8.98727 15.3731 -4.12739
292 2 2.92401 8.78882 15.3731 -4.12744
293 2 1.63386 11.4203 15.3731 -4.12744
294 2 3.03858 13.8533 11.0098 -4.12708
295 2 1.40472 11.4203 11.0098 -4.12708
296 2 4.32872 11.2219 11.0098 -4.12709
297 2 3.03858 8.98727 11.0098 -4.12707
298 2 1.40472 6.55424 11.0098 -4.12709
299 2 4.32872 6.35579 11.0098 -4.12709
300 2 5.61887 4.1212 11.0098 -4.12707
301 2 0.114574 3.92275 11.0098 -4.12708
302 2 7.25273 6.55424 11.0098 -4.12709
303 2 0.114574 13.6549 11.0098 -4.12709
304 2 5.61887 13.8533 11.0098 -4.12707
305 2 7.25273 1.68818 11.0098 -4.12709
306 2 7.25273 11.4203 11.0098 -4.12707
307 2 5.61887 8.98727 11.0098 -4.12708
308 2 0.114574 8.78882 11.0098 -4.12709
309 2 3.03858 4.1212 11.0098 -4.12707
310 2 4.32872 1.48973 11.0098 -4.12708
311 2 1.40472 1.68816 11.0098 -4.12708
312 2 5.73344 0.943306 13.1914 -4.12709
313 2 2.80944 0.744873 13.1914 -4.12708
314 2 4.44329 12.91 13.1914 -4.1271
315 2 0.22914 5.61093 13.1914 -4.12709
316 2 7.02359 8.04396 13.1914 -4.12709
317 2 1.51929 8.24241 13.1914 -4.12708
318 2 0.22914 0.744873 13.1914 -4.12709
319 2 7.02359 3.1779 13.1914 -4.12708
320 2 1.51929 3.37635 13.1914 -4.12708
321 2 4.44329 3.1779 13.1914 -4.12709
322 2 5.73344 5.80937 13.1914 -4.1271
323 2 2.80944 5.61093 13.1914 -4.12709
324 2 0.22914 10.477 13.1914 -4.12709
325 2 7.02359 12.91 13.1914 -4.12709
326 2 1.51929 13.1085 13.1914 -4.12709
327 2 4.44329 8.04396 13.1914 -4.12709
328 2 5.73344 10.6754 13.1914 -4.12709
329 2 2.80944 10.477 13.1914 -4.12709
366 2 5.84801 10.477 8.8281 -4.12712
367 2 7.13816 13.1085 8.8281 -4.12713
368 2 0 10.477 8.8281 -4.12713
369 2 1.63386 12.91 8.8281 -4.12713
370 2 4.21415 8.04396 8.8281 -4.12713
371 2 5.84801 5.61093 8.8281 -4.12712
372 2 7.13816 8.24241 8.8281 -4.12713
373 2 1.63386 8.04396 8.8281 -4.12711
374 2 2.92401 10.6754 8.8281 -4.12713
375 2 4.21415 3.1779 8.8281 -4.12712
376 2 5.84801 0.744873 8.8281 -4.12712
377 2 7.13816 3.37635 8.8281 -4.12712
378 2 1.63386 3.1779 8.8281 -4.12711
379 2 2.92401 5.80937 8.8281 -4.12713
380 2 2.92401 0.943306 8.8281 -4.12713
381 2 4.21415 12.91 8.8281 -4.12713
382 2 0 0.744859 8.8281 -4.12713
383 2 0 5.61092 8.8281 -4.12714
1 1 7.16223 9.91917 19.0499 -3.64811
2 1 4.60318 7.56015 21.0116 -4.05179
3 1 7.07851 14.7092 19.1591 -2.61495
4 1 4.91101 10.4858 21.1481 -3.65761
5 1 7.14426 5.13299 18.9359 -5.73222
6 1 5.48904 2.69686 20.8297 -2.27408
7 1 3.10717 12.1264 18.997 -6.01245
8 1 2.02318 11.3872 21.2347 -2.85524
9 1 2.62155 7.05877 18.7926 -4.80878
10 1 2.15811 5.2011 20.3689 -3.39575
11 1 3.10125 2.38225 19.0884 -4.38278
12 1 1.2515 13.9536 21.2218 -1.66472
13 1 4.32872 4.86606 18.5106 -8.50806
14 1 2.92401 7.2991 16.7095 -6.221
15 1 4.32872 9.73212 18.5106 -8.10943
16 1 2.92401 12.1652 16.7095 -6.459
17 1 0.114574 12.1652 18.5106 -4.49335
18 1 0.114574 7.2991 18.5106 -2.87256
19 1 7.13816 9.73214 16.7095 -6.58608
20 1 0.114574 2.43304 18.5106 -4.29313
21 1 7.13816 4.86606 16.7095 -6.43548
22 1 4.32872 0 18.5106 -2.94326
23 1 2.92401 2.43304 16.7095 -6.572
24 1 7.13816 0 16.7095 -6.70953
115 1 7.0236 8.27947 23.8462 -2.94484
116 1 1.40472 8.27947 23.8462 -2.95325
117 1 5.61888 10.7125 23.8576 -3.14157
118 1 0 10.7125 23.8576 -3.03776
119 1 4.21416 8.27947 23.8462 -3.13878
120 1 2.80944 10.7125 23.8576 -3.18527
122 1 4.21416 13.1455 23.869 -2.93054
124 1 7.0236 13.1455 23.869 -2.95023
126 1 1.40472 13.1455 23.869 -3.36084
130 1 5.61888 0.980371 23.812 -3.05293
131 1 0 0.980371 23.812 -3.12027
132 1 2.80944 0.980371 23.812 -3.08961
133 1 7.0236 3.41341 23.8235 -3.05649
134 1 1.40472 3.41341 23.8235 -2.96728
135 1 5.61888 5.84643 23.8348 -3.02932
136 1 0 5.84643 23.8348 -2.97147
137 1 4.21416 3.41341 23.8235 -3.08934
138 1 2.80944 5.84643 23.8348 -2.97732
247 2 5.70472 6.64284 19.3664 -1.99433
248 2 5.53424 8.97699 19.7644 -3.76661
249 2 5.76839 4.09916 19.5763 -3.30027
250 2 0.320148 4.11887 19.4967 -2.19261
251 2 3.29719 10.4734 20.0798 -3.25151
252 2 4.9504 11.4277 19.3416 -3.01757
253 2 3.80876 6.16381 19.8759 -3.91237
254 2 3.22966 8.52208 19.6345 -2.97032
255 2 2.58279 4.1954 18.8496 -3.21202
256 2 3.78597 3.82876 20.4118 -2.90107
257 2 1.49943 11.2237 19.3742 -2.75757
258 2 4.32872 3.37635 17.5548 -4.17426
259 2 3.03858 5.61093 17.5548 -3.81817
260 2 5.61887 5.61093 17.5548 -4.02119
261 2 4.32872 8.24241 17.5548 -3.72316
262 2 3.03858 10.477 17.5548 -4.38686
263 2 5.61887 10.477 17.5548 -3.8062
264 2 1.40472 12.91 17.5548 -3.46312
265 2 7.25273 12.91 17.5548 -3.31869
266 2 0.114574 10.6754 17.5548 -3.56222
267 2 0.114574 5.80937 17.5548 -3.48814
268 2 1.40472 8.04397 17.5548 -3.49632
269 2 7.25273 8.04397 17.5548 -3.35794
270 2 1.40472 3.1779 17.5548 -3.41956
271 2 7.25273 3.1779 17.5548 -3.64913
272 2 0.114574 0.943306 17.5548 -3.37449
273 2 4.32872 13.1085 17.5548 -3.3811
274 2 3.03858 0.744873 17.5548 -3.19895
275 2 5.61887 0.744873 17.5548 -3.27189
103 1 7.0236 5.02485 26.1582 -3.42376
104 1 1.40472 5.02485 26.1582 -3.43879
105 1 5.61888 7.45787 26.1696 -3.42921
106 1 0 7.45787 26.1696 -3.43976
107 1 4.21416 5.02485 26.1582 -3.42519
108 1 2.80944 7.45787 26.1696 -3.42272
109 1 7.0236 9.89091 26.181 -3.41465
110 1 1.40472 9.89091 26.181 -3.41937
111 1 5.61888 12.3239 26.1924 -3.42687
112 1 0 12.3239 26.1924 -3.41989
113 1 4.21416 9.89091 26.181 -3.4005
114 1 2.80944 12.3239 26.1924 -3.40967
121 1 4.21416 0.158785 26.1354 -3.42028
123 1 7.0236 0.158785 26.1354 -3.41899
125 1 1.40472 0.158785 26.1354 -3.40872
127 1 5.61888 2.59181 26.1468 -3.43798
128 1 0 2.59181 26.1468 -3.42374
129 1 2.80944 2.59181 26.1468 -3.42456
139 1 5.61888 5.81468 30.8164 -3.35104
140 1 0 5.81468 30.8164 -3.35104
141 1 7.0236 8.24771 30.8277 -3.35103
142 1 1.40472 8.24771 30.8277 -3.35103
143 1 4.21416 8.24771 30.8277 -3.35103
144 1 2.80944 5.81468 30.8164 -3.35104
145 1 7.0236 1.77021 28.4702 -3.35207
146 1 1.40472 1.77021 28.4702 -3.35207
147 1 4.21416 1.77021 28.4702 -3.35207
148 1 7.0236 6.63627 28.493 -3.35105
149 1 1.40472 6.63627 28.493 -3.35104
150 1 5.61888 4.20324 28.4816 -3.35108
151 1 0 4.20324 28.4816 -3.35108
152 1 4.21416 6.63627 28.493 -3.35104
153 1 2.80944 4.20324 28.4816 -3.35108
154 1 5.61888 9.06931 28.5044 -3.35104
155 1 0 9.06931 28.5044 -3.35104
156 1 7.0236 11.5023 28.5158 -3.35223
157 1 1.40472 11.5023 28.5158 -3.35223
158 1 4.21416 11.5023 28.5158 -3.35223
159 1 2.80944 9.06931 28.5044 -3.35104
160 1 2.80944 0.94862 30.7936 -3.3559
161 1 2.80944 13.9354 28.5271 -3.34153
162 1 0 0.94862 30.7936 -3.3559
163 1 0 13.9354 28.5271 -3.34154
164 1 5.61888 0.94862 30.7936 -3.3559
165 1 5.61888 13.9354 28.5271 -3.34153
166 1 7.0236 3.38164 30.805 -3.34972
167 1 1.40472 3.38164 30.805 -3.34972
168 1 4.21416 3.38164 30.805 -3.34972
179 1 4.21416 13.1138 30.8505 -3.35589
180 1 5.61888 10.6807 30.8392 -3.34972
181 1 0 10.6807 30.8392 -3.34973
183 1 7.0236 13.1138 30.8505 -3.3559
185 1 1.40472 13.1138 30.8505 -3.35589
186 1 2.80944 10.6807 30.8392 -3.34972
169 1 5.61888 7.42612 33.1512 -3.35104
170 1 0 7.42612 33.1512 -3.35104
171 1 7.0236 9.85914 33.1626 -3.35108
172 1 1.40472 9.85914 33.1626 -3.35108
173 1 4.21416 9.85914 33.1626 -3.35108
174 1 2.80944 7.42612 33.1512 -3.35104
175 1 5.61888 12.2922 33.1739 -3.35206
176 1 0 12.2922 33.1739 -3.35206
177 1 2.80944 12.2922 33.1739 -3.35206
178 1 4.21416 0.127019 33.117 -3.34154
182 1 7.0236 0.127019 33.117 -3.34154
184 1 1.40472 0.127019 33.117 -3.34154
187 1 5.61888 2.56006 33.1284 -3.35222
188 1 0 2.56006 33.1284 -3.35222
189 1 7.0236 4.99308 33.1397 -3.35105
190 1 1.40472 4.99308 33.1397 -3.35104
191 1 4.21416 4.99308 33.1397 -3.35104
192 1 2.80944 2.56006 33.1284 -3.35222
193 1 5.61888 12.2604 40.1555 -2.97112
194 1 0 12.2604 40.1555 -2.97112
195 1 2.80944 12.2604 40.1555 -2.97111
196 1 7.0236 9.82739 40.1441 -2.97446
197 1 1.40472 9.82739 40.1441 -2.97446
198 1 4.21416 9.82739 40.1441 -2.97446
199 1 5.61888 5.78293 37.7979 -3.43976
200 1 0 5.78293 37.7979 -3.43976
201 1 7.0236 8.21595 37.8093 -3.43975
202 1 1.40472 8.21595 37.8093 -3.43975
203 1 4.21416 8.21595 37.8093 -3.43975
204 1 2.80944 5.78293 37.7979 -3.43976
205 1 4.21416 0.095268 40.0985 -2.9788
206 1 4.21416 13.082 37.8321 -3.44396
207 1 5.61888 2.52829 40.11 -2.97213
208 1 0 2.52829 40.11 -2.97213
209 1 5.61888 10.649 37.8207 -3.43844
210 1 0 10.649 37.8207 -3.43844
211 1 7.0236 0.095268 40.0985 -2.97881
212 1 7.0236 13.082 37.8321 -3.44396
213 1 1.40472 0.095268 40.0985 -2.97881
214 1 1.40472 13.082 37.8321 -3.44396
215 1 2.80944 2.52829 40.11 -2.97213
216 1 2.80944 10.649 37.8207 -3.43844
217 1 7.0236 4.96133 40.1213 -2.97443
218 1 1.40472 4.96133 40.1213 -2.97443
219 1 5.61888 7.39435 40.1327 -2.97441
220 1 0 7.39435 40.1327 -2.97442
221 1 4.21416 4.96133 40.1213 -2.97442
222 1 2.80944 7.39435 40.1327 -2.97441
223 1 5.61888 9.03756 35.4859 -3.35104
224 1 0 9.03756 35.4859 -3.35105
225 1 7.0236 11.4706 35.4973 -3.35223
226 1 1.40472 11.4706 35.4973 -3.35223
227 1 4.21416 11.4706 35.4973 -3.35223
228 1 2.80944 9.03756 35.4859 -3.35104
229 1 2.80944 0.916869 37.7751 -3.4418
230 1 2.80944 13.9036 35.5087 -3.34154
231 1 0 0.916869 37.7751 -3.44181
232 1 0 13.9036 35.5087 -3.34155
233 1 5.61888 0.916869 37.7751 -3.4418
234 1 5.61888 13.9036 35.5087 -3.34154
235 1 7.0236 3.34989 37.7865 -3.43844
236 1 1.40472 3.34989 37.7865 -3.43843
237 1 4.21416 3.34989 37.7865 -3.43843
238 1 7.0236 1.73846 35.4518 -3.35208
239 1 1.40472 1.73846 35.4518 -3.35207
240 1 4.21416 1.73846 35.4518 -3.35207
241 1 7.0236 6.60452 35.4745 -3.35104
242 1 1.40472 6.60452 35.4745 -3.35104
243 1 5.61888 4.17149 35.4632 -3.35108
244 1 0 4.17149 35.4632 -3.35108
245 1 4.21416 6.60452 35.4745 -3.35104
246 1 2.80944 4.17149 35.4632 -3.35108
