LAMMPS (12 Dec 2018)
Reading data file ...
  orthogonal box = (0 0 0) to (18 18 18)
  1 by 1 by 2 MPI processor grid
  reading atoms ...
  17 atoms
Reading potential file /blue/hennig/kvs.chaitanya/relaxation/Fantastx/develop_F19/august_20/test_algo/Ti-O.tersoff.zbl with DATE: 2018-05-16
WARNING: Using 'neigh_modify every 1 delay 0 check yes' setting during minimization (../min.cpp:168)
Neighbor list info ...
  update every 1 steps, delay 0 steps, check yes
  max neighbors/atom: 1000, page size: 100000
  master list distance cutoff = 5.35
  ghost atom cutoff = 5.35
  binsize = 2.675, bins = 7 7 7
  1 neighbor lists, perpetual/occasional/extra = 1 0 0
  (1) pair tersoff/zbl, perpetual
      attributes: full, newton on
      pair build: full/bin/atomonly
      stencil: full/bin/3d
      bin: standard
Setting up cg style minimization ...
  Unit style    : metal
  Current step  : 0
Per MPI rank memory allocation (min/avg/max) = 4.045 | 4.233 | 4.42 Mbytes
Step Temp E_pair E_mol TotEng Press 
       0            0    4.8938717            0    4.8938717    47356.875 
       1            0   -17.278773            0   -17.278773    33771.893 
Loop time of 0.00102699 on 2 procs for 1 steps with 17 atoms

45.6% CPU use with 2 MPI tasks x no OpenMP threads

Minimization stats:
  Stopping criterion = max force evaluations
  Energy initial, next-to-last, final = 
         4.89387168398      4.89387168398     -17.2787731622
  Force two-norm initial, final = 97.5585 58.2713
  Force max component initial, final = 32.4039 19.3609
  Final line search alpha, max atom move = 0.00308604 0.0597486
  Iterations, force evaluations = 1 1

MPI task timing breakdown:
Section |  min time  |  avg time  |  max time  |%varavg| %total
---------------------------------------------------------------
Pair    | 0.00014305 | 0.00024855 | 0.00035405 |   0.0 | 24.20
Neigh   | 0          | 0          | 0          |   0.0 |  0.00
Comm    | 0.00026178 | 0.00038433 | 0.00050688 |   0.0 | 37.42
Output  | 0          | 0          | 0          |   0.0 |  0.00
Modify  | 0          | 0          | 0          |   0.0 |  0.00
Other   |            | 0.0003941  |            |       | 38.37

Nlocal:    8.5 ave 10 max 7 min
Histogram: 1 0 0 0 0 0 0 0 0 1
Nghost:    8.5 ave 10 max 7 min
Histogram: 1 0 0 0 0 0 0 0 0 1
Neighs:    0 ave 0 max 0 min
Histogram: 2 0 0 0 0 0 0 0 0 0
FullNghs:  129 ave 156 max 102 min
Histogram: 1 0 0 0 0 0 0 0 0 1

Total # of neighbors = 258
Ave neighs/atom = 15.1765
Neighbor list builds = 0
Dangerous builds = 0
WARNING: Using 'neigh_modify every 1 delay 0 check yes' setting during minimization (../min.cpp:168)
Setting up cg style minimization ...
  Unit style    : metal
  Current step  : 1
Per MPI rank memory allocation (min/avg/max) = 4.045 | 4.233 | 4.42 Mbytes
Step Temp E_pair E_mol TotEng Press 
       1            0   -17.278773            0   -17.278773    33771.893 
     177            0   -75.136404            0   -75.136404   0.02387265 
Loop time of 0.0502238 on 2 procs for 176 steps with 17 atoms

74.0% CPU use with 2 MPI tasks x no OpenMP threads

Minimization stats:
  Stopping criterion = force tolerance
  Energy initial, next-to-last, final = 
        -17.2787731622     -75.1364041651     -75.1364042165
  Force two-norm initial, final = 58.2713 0.000824384
  Force max component initial, final = 19.3609 0.000306772
  Final line search alpha, max atom move = 1 0.000306772
  Iterations, force evaluations = 176 331

MPI task timing breakdown:
Section |  min time  |  avg time  |  max time  |%varavg| %total
---------------------------------------------------------------
Pair    | 0.019191   | 0.023412   | 0.027634   |   2.8 | 46.62
Neigh   | 1.9073e-05 | 2.0385e-05 | 2.1696e-05 |   0.0 |  0.04
Comm    | 0.0087686  | 0.014412   | 0.020055   |   4.7 | 28.70
Output  | 0          | 0          | 0          |   0.0 |  0.00
Modify  | 0          | 0          | 0          |   0.0 |  0.00
Other   |            | 0.01238    |            |       | 24.65

Nlocal:    8.5 ave 9 max 8 min
Histogram: 1 0 0 0 0 0 0 0 0 1
Nghost:    8.5 ave 9 max 8 min
Histogram: 1 0 0 0 0 0 0 0 0 1
Neighs:    0 ave 0 max 0 min
Histogram: 2 0 0 0 0 0 0 0 0 0
FullNghs:  117 ave 130 max 104 min
Histogram: 1 0 0 0 0 0 0 0 0 1

Total # of neighbors = 234
Ave neighs/atom = 13.7647
Neighbor list builds = 3
Dangerous builds = 0
WARNING: Using 'neigh_modify every 1 delay 0 check yes' setting during minimization (../min.cpp:168)
Setting up cg style minimization ...
  Unit style    : metal
  Current step  : 177
Per MPI rank memory allocation (min/avg/max) = 4.045 | 4.233 | 4.42 Mbytes
Step Temp E_pair E_mol TotEng Press 
     177            0   -75.136404            0   -75.136404   0.02387265 
     197            0   -75.136404            0   -75.136404  0.018098843 
Loop time of 0.00482607 on 2 procs for 20 steps with 17 atoms

94.7% CPU use with 2 MPI tasks x no OpenMP threads

Minimization stats:
  Stopping criterion = force tolerance
  Energy initial, next-to-last, final = 
        -75.1364042165     -75.1364044035     -75.1364044045
  Force two-norm initial, final = 0.000824384 8.92073e-05
  Force max component initial, final = 0.000306772 3.47978e-05
  Final line search alpha, max atom move = 1 3.47978e-05
  Iterations, force evaluations = 20 40

MPI task timing breakdown:
Section |  min time  |  avg time  |  max time  |%varavg| %total
---------------------------------------------------------------
Pair    | 0.0024354  | 0.002921   | 0.0034065  |   0.9 | 60.53
Neigh   | 0          | 0          | 0          |   0.0 |  0.00
Comm    | 0.00013518 | 0.00069726 | 0.0012593  |   0.0 | 14.45
Output  | 0          | 0          | 0          |   0.0 |  0.00
Modify  | 0          | 0          | 0          |   0.0 |  0.00
Other   |            | 0.001208   |            |       | 25.03

Nlocal:    8.5 ave 9 max 8 min
Histogram: 1 0 0 0 0 0 0 0 0 1
Nghost:    8.5 ave 9 max 8 min
Histogram: 1 0 0 0 0 0 0 0 0 1
Neighs:    0 ave 0 max 0 min
Histogram: 2 0 0 0 0 0 0 0 0 0
FullNghs:  118 ave 130 max 106 min
Histogram: 1 0 0 0 0 0 0 0 0 1

Total # of neighbors = 236
Ave neighs/atom = 13.8824
Neighbor list builds = 0
Dangerous builds = 0
Total wall time: 0:00:00
