ITEM: TIMESTEP
768
ITEM: NUMBER OF ATOMS
18
ITEM: BOX BOUNDS ff ff ff
0.0000000000000000e+00 1.8000000000000000e+01
0.0000000000000000e+00 1.8000000000000000e+01
0.0000000000000000e+00 1.8000000000000000e+01
ITEM: ATOMS id type x y z c_peatom 
10 2 9.18003 5.82919 7.37087 -3.037 
13 2 7.44032 7.93855 8.81607 -2.51632 
15 2 9.70273 8.17393 8.47587 -4.33966 
1 1 10.6022 6.46988 8.0116 -5.63977 
12 2 11.0577 7.34296 6.34949 -4.3154 
2 1 9.83542 9.0033 6.75489 -5.42059 
3 1 12.5513 8.27185 6.8346 -3.85369 
8 2 8.34157 10.2555 6.96139 -3.43181 
4 1 8.83008 11.352 8.3448 -5.25413 
11 2 11.5199 9.72053 7.40489 -4.68012 
9 2 8.76898 7.99053 11.1253 -2.4498 
5 1 7.97801 9.05628 10.0036 -9.63379 
17 2 6.52103 9.13924 10.9317 -2.47692 
18 2 8.56417 11.8909 11.5848 -3.50363 
16 2 7.37278 10.9099 9.28675 -3.16769 
7 1 10.1087 11.6248 11.1659 -4.72798 
14 2 9.72719 10.3288 9.74881 -4.30728 
6 1 11.184 9.14629 9.19732 -4.39724 
