ITEM: TIMESTEP
663
ITEM: NUMBER OF ATOMS
17
ITEM: BOX BOUNDS ff ff ff
0.0000000000000000e+00 1.8000000000000000e+01
0.0000000000000000e+00 1.8000000000000000e+01
0.0000000000000000e+00 1.8000000000000000e+01
ITEM: ATOMS id type x y z c_peatom 
2 1 6.86638 6.52686 8.89382 -4.73582 
6 1 6.65694 8.59309 7.01316 -4.34692 
15 2 8.42383 7.48509 8.01509 -4.44012 
8 2 6.13825 8.28635 8.72852 -4.08177 
1 1 9.37502 8.76551 6.51726 -5.40853 
3 1 10.0656 6.95256 8.8351 -3.59555 
14 2 8.01894 9.69788 7.53734 -3.98081 
13 2 10.5679 9.73236 7.15103 -3.21959 
9 2 7.25063 7.27208 10.4668 -3.44331 
5 1 8.11963 8.90806 9.61987 -7.77187 
7 2 9.53041 7.67548 10.387 -3.93405 
16 2 8.54712 9.48478 11.4054 -2.7387 
11 2 9.59626 10.1503 9.47429 -2.79467 
4 1 10.5579 9.48262 11.061 -10.3701 
17 2 12.0073 9.37389 10.1108 -2.40226 
12 2 10.9051 8.17884 12.1646 -2.38285 
10 2 10.9336 10.8373 12.0671 -2.42587 
