ITEM: TIMESTEP
61
ITEM: NUMBER OF ATOMS
386
ITEM: BOX BOUNDS pp pp pp
0.0000000000000000e+00 8.4283000000000001e+00
0.0000000000000000e+00 1.4598200000000000e+01
0.0000000000000000e+00 4.9476269000000002e+01
ITEM: ATOMS id type x y z c_peatom
64 1 2.92401 12.1652 3.61953 -2.2941
65 1 7.13816 4.86606 3.61953 -2.29409
66 1 5.73344 7.2991 5.31004 -6.5982
67 1 7.13816 9.73214 3.61953 -2.29409
68 1 5.73344 12.1652 5.31004 -6.5982
69 1 7.13816 0 3.61953 -2.29408
70 1 5.73344 2.43304 5.31004 -6.5982
71 1 2.92401 7.2991 3.61953 -2.29408
72 1 1.51929 9.73212 5.31004 -6.59819
73 1 2.92401 2.43304 3.61953 -2.29408
74 1 1.51929 4.86606 5.31004 -6.5982
75 1 1.51929 0 5.31004 -6.59819
76 1 0.114574 7.2991 5.80124 -6.54405
77 1 4.32872 9.73212 5.80124 -6.54404
78 1 2.92401 7.2991 7.4917 -6.40207
79 1 0.114574 12.1652 5.80124 -6.54405
80 1 7.13816 9.73214 7.4917 -6.40206
81 1 4.32872 0 5.80124 -6.54405
82 1 2.92401 12.1652 7.4917 -6.40208
83 1 0.114574 2.43304 5.80124 -6.54404
84 1 7.13816 0 7.4917 -6.40207
85 1 4.32872 4.86606 5.80124 -6.54403
86 1 2.92401 2.43304 7.4917 -6.40207
87 1 7.13816 4.86606 7.4917 -6.40206
88 1 5.73344 12.1652 7.98285 -6.40205
91 1 5.73344 7.2991 7.98285 -6.40204
92 1 1.51929 9.73212 7.98285 -6.40204
95 1 5.73344 2.43304 7.98285 -6.40204
96 1 1.51929 4.86606 7.98285 -6.40204
98 1 1.51929 0 7.98285 -6.40204
100 1 4.32872 9.73212 3.12833 -3.27315
101 1 4.32872 4.86606 3.12833 -3.27316
102 1 0.114574 12.1652 3.12833 -3.27315
103 1 0.114574 2.43304 3.12833 -3.27315
104 1 0.114574 7.2991 3.12833 -3.27315
105 1 4.32872 0 3.12833 -3.27314
325 2 3.03858 10.477 4.46474 -3.32409
326 2 1.40472 12.91 4.46474 -3.32409
327 2 4.32872 13.1085 4.46474 -3.32408
328 2 7.25273 3.1779 4.46474 -3.32408
329 2 0.114574 5.80937 4.46474 -3.32409
330 2 5.61887 5.61093 4.46474 -3.32408
331 2 0.114574 10.6754 4.46474 -3.32409
332 2 5.61887 10.477 4.46474 -3.32408
333 2 7.25273 8.04396 4.46474 -3.32409
334 2 0.114574 0.943306 4.46474 -3.32409
335 2 5.61887 0.744873 4.46474 -3.32408
336 2 7.25273 12.91 4.46474 -3.32408
337 2 1.40472 8.04396 4.46474 -3.32407
338 2 4.32872 8.24241 4.46474 -3.32408
339 2 3.03858 5.61092 4.46474 -3.32409
340 2 1.40472 3.1779 4.46474 -3.32408
341 2 4.32872 3.37635 4.46474 -3.32409
342 2 3.03858 0.744859 4.46474 -3.32408
343 2 0.22914 8.98727 6.64644 -4.12705
344 2 7.02359 6.55424 6.64644 -4.12705
345 2 1.51929 6.35579 6.64644 -4.12705
346 2 5.73344 8.78883 6.64644 -4.12705
347 2 2.80944 8.98727 6.64644 -4.12704
348 2 4.44329 11.4203 6.64644 -4.12706
349 2 0.22914 13.8533 6.64644 -4.12706
350 2 7.02359 11.4203 6.64644 -4.12704
351 2 1.51929 11.2219 6.64644 -4.12706
352 2 4.44329 1.68816 6.64644 -4.12706
353 2 5.73344 13.6549 6.64644 -4.12705
354 2 2.80944 13.8533 6.64644 -4.12705
355 2 0.22914 4.1212 6.64644 -4.12705
356 2 1.51929 1.48973 6.64644 -4.12705
357 2 7.02359 1.68816 6.64644 -4.12705
358 2 2.80944 4.1212 6.64644 -4.12704
359 2 5.73344 3.92275 6.64644 -4.12704
360 2 4.44329 6.55424 6.64644 -4.12706
28 1 5.73344 2.43304 14.5279 -6.40125
29 1 4.32872 4.86606 16.2184 -6.39117
30 1 5.73344 12.1652 14.5279 -6.40126
31 1 5.73344 7.2991 14.5279 -6.40126
32 1 4.32872 9.73212 16.2184 -6.34222
33 1 1.51928 4.86606 14.5279 -6.40124
34 1 0.114574 2.43304 16.2184 -6.33115
35 1 1.51928 0 14.5279 -6.40125
36 1 0.114574 12.1652 16.2184 -6.33903
37 1 1.51928 9.73212 14.5279 -6.40124
38 1 0.114574 7.2991 16.2184 -6.32985
39 1 4.32872 0 16.2184 -6.37994
40 1 2.92401 12.1652 10.1646 -6.40196
41 1 2.92401 7.2991 10.1646 -6.40195
42 1 1.51929 9.73212 11.855 -6.4021
43 1 7.13816 4.86606 10.1646 -6.40194
44 1 5.73344 2.43304 11.855 -6.40212
45 1 7.13816 0 10.1646 -6.40195
46 1 5.73344 12.1652 11.855 -6.40212
47 1 7.13816 9.73214 10.1646 -6.40194
48 1 5.73344 7.2991 11.855 -6.40212
49 1 2.92401 2.43304 10.1646 -6.40195
50 1 1.51929 0 11.855 -6.40212
51 1 1.51929 4.86606 11.855 -6.4021
52 1 4.32872 0 12.3462 -6.40196
53 1 2.92401 2.43304 14.0367 -6.38416
54 1 7.13816 0 14.0367 -6.38415
55 1 0.114574 7.2991 12.3462 -6.40197
56 1 0.114574 2.43304 12.3462 -6.40196
57 1 7.13816 4.86606 14.0367 -6.38415
58 1 4.32872 4.86606 12.3462 -6.40196
59 1 2.92401 7.2991 14.0367 -6.38417
60 1 0.114574 12.1652 12.3462 -6.40197
61 1 4.32872 9.73212 12.3462 -6.40196
62 1 7.13816 9.73214 14.0367 -6.38415
63 1 2.92401 12.1652 14.0367 -6.38418
89 1 0.114574 12.1652 9.67335 -6.40208
90 1 4.32872 9.73212 9.67335 -6.40207
93 1 0.114574 7.2991 9.67335 -6.40207
94 1 4.32872 4.86606 9.67335 -6.40207
97 1 0.114574 2.43304 9.67335 -6.40207
99 1 4.32872 0 9.67335 -6.40207
271 2 5.84801 4.1212 15.3731 -4.12743
272 2 7.13816 1.48973 15.3731 -4.12743
273 2 4.21415 1.68818 15.3731 -4.12744
274 2 5.84801 13.8533 15.3731 -4.12743
275 2 7.13816 11.2219 15.3731 -4.12743
276 2 4.21415 11.4203 15.3731 -4.12745
277 2 5.84801 8.98727 15.3731 -4.12743
278 2 7.13816 6.35579 15.3731 -4.12744
279 2 4.21415 6.55424 15.3731 -4.12745
280 2 0 4.1212 15.3731 -4.12742
281 2 2.92401 3.92275 15.3731 -4.12744
282 2 1.63386 6.55424 15.3731 -4.12744
283 2 1.63386 1.68816 15.3731 -4.12743
284 2 0 13.8533 15.3731 -4.12744
285 2 2.92401 13.6549 15.3731 -4.12745
286 2 0 8.98727 15.3731 -4.12744
287 2 2.92401 8.78882 15.3731 -4.12744
288 2 1.63386 11.4203 15.3731 -4.12744
289 2 3.03858 13.8533 11.0098 -4.12708
290 2 1.40472 11.4203 11.0098 -4.12708
291 2 4.32872 11.2219 11.0098 -4.12709
292 2 3.03858 8.98727 11.0098 -4.12707
293 2 1.40472 6.55424 11.0098 -4.12709
294 2 4.32872 6.35579 11.0098 -4.12709
295 2 5.61887 4.1212 11.0098 -4.12707
296 2 0.114574 3.92275 11.0098 -4.12708
297 2 7.25273 6.55424 11.0098 -4.12709
298 2 0.114574 13.6549 11.0098 -4.12709
299 2 5.61887 13.8533 11.0098 -4.12707
300 2 7.25273 1.68818 11.0098 -4.12709
301 2 7.25273 11.4203 11.0098 -4.12707
302 2 5.61887 8.98727 11.0098 -4.12708
303 2 0.114574 8.78882 11.0098 -4.12709
304 2 3.03858 4.1212 11.0098 -4.12707
305 2 4.32872 1.48973 11.0098 -4.12708
306 2 1.40472 1.68816 11.0098 -4.12708
307 2 5.73344 0.943306 13.1914 -4.12709
308 2 2.80944 0.744873 13.1914 -4.12708
309 2 4.44329 12.91 13.1914 -4.1271
310 2 0.22914 5.61093 13.1914 -4.12709
311 2 7.02359 8.04396 13.1914 -4.12709
312 2 1.51929 8.24241 13.1914 -4.12708
313 2 0.22914 0.744873 13.1914 -4.12709
314 2 7.02359 3.1779 13.1914 -4.12708
315 2 1.51929 3.37635 13.1914 -4.12708
316 2 4.44329 3.1779 13.1914 -4.12709
317 2 5.73344 5.80937 13.1914 -4.1271
318 2 2.80944 5.61093 13.1914 -4.12709
319 2 0.22914 10.477 13.1914 -4.12709
320 2 7.02359 12.91 13.1914 -4.12709
321 2 1.51929 13.1085 13.1914 -4.12709
322 2 4.44329 8.04396 13.1914 -4.12709
323 2 5.73344 10.6754 13.1914 -4.12709
324 2 2.80944 10.477 13.1914 -4.12709
361 2 5.84801 10.477 8.8281 -4.12712
362 2 7.13816 13.1085 8.8281 -4.12713
363 2 0 10.477 8.8281 -4.12713
364 2 1.63386 12.91 8.8281 -4.12713
365 2 4.21415 8.04396 8.8281 -4.12713
366 2 5.84801 5.61093 8.8281 -4.12712
367 2 7.13816 8.24241 8.8281 -4.12713
368 2 1.63386 8.04396 8.8281 -4.12711
369 2 2.92401 10.6754 8.8281 -4.12713
370 2 4.21415 3.1779 8.8281 -4.12712
371 2 5.84801 0.744873 8.8281 -4.12712
372 2 7.13816 3.37635 8.8281 -4.12712
373 2 1.63386 3.1779 8.8281 -4.12711
374 2 2.92401 5.80937 8.8281 -4.12713
375 2 2.92401 0.943306 8.8281 -4.12713
376 2 4.21415 12.91 8.8281 -4.12713
377 2 0 0.744859 8.8281 -4.12713
378 2 0 5.61092 8.8281 -4.12714
1 1 5.61888 0.980371 23.812 -2.96195
2 1 0 0.980371 23.812 -2.95295
3 1 2.80944 0.980371 23.812 -2.95691
5 1 4.21416 13.1455 23.869 -3.1085
8 1 7.0236 8.27947 23.8462 -3.07142
9 1 1.40472 8.27947 23.8462 -3.16771
10 1 2.92401 12.1652 19.0018 -5.03306
11 1 3.39125 11.6835 21.4778 -3.04688
12 1 8.81614 7.03171 21.0992 -2.26558
13 1 4.32872 4.86606 18.5106 -4.1193
14 1 2.92401 7.2991 16.7095 -6.54502
15 1 4.32872 9.73212 18.5106 -5.55058
16 1 2.92401 12.1652 16.7095 -6.5033
17 1 0.348385 9.98637 21.298 -3.63562
18 1 5.66853 10.138 21.2941 -3.51553
19 1 7.13816 9.73214 19.0018 -6.11561
20 1 0.114574 12.1652 18.5106 -5.36741
21 1 0.114574 7.2991 18.5106 -5.7947
22 1 7.13816 9.73214 16.7095 -6.43036
23 1 0.114574 2.43304 18.5106 -5.78398
24 1 7.13816 4.86606 16.7095 -6.54904
25 1 4.32872 0 18.5106 -4.33916
26 1 2.92401 2.43304 16.7095 -6.45628
27 1 7.13816 0 16.7095 -6.57676
106 1 7.13816 4.86606 19.0018 -3.72377
107 1 2.92401 2.43304 19.0018 -6.028
108 1 2.92401 7.2991 19.0018 -3.73473
109 1 7.13816 0 19.0018 -2.56682
110 1 5.92259 12.5777 20.6725 -3.55804
111 1 1.2998 3.69966 20.9238 -3.37968
112 1 7.0236 13.1455 23.869 -3.09806
113 1 2.80944 10.7125 23.8576 -3.10477
114 1 0 10.7125 23.8576 -3.1943
115 1 1.40472 3.41341 23.8235 -3.16352
118 1 1.40472 13.1455 23.869 -3.13876
119 1 7.0236 3.41341 23.8235 -2.96152
120 1 5.61888 10.7125 23.8576 -3.17407
121 1 5.61888 5.84643 23.8348 -2.96345
122 1 0 5.84643 23.8348 -3.13372
123 1 4.21416 8.27947 23.8462 -3.00115
124 1 4.21416 3.41341 23.8235 -2.96699
126 1 2.80944 5.84643 23.8348 -2.94054
247 1 0.319296 12.3788 21.0148 -2.59856
248 2 4.59423 11.2951 19.7525 -3.79139
249 2 1.42189 6.43957 19.5376 -2.73042
250 2 4.32872 3.37635 17.5548 -3.89864
251 2 3.03858 5.61093 17.5548 -3.67676
252 2 5.61887 5.61093 17.5548 -3.37167
253 2 4.32872 8.24241 17.5548 -3.54982
254 2 3.03858 10.477 17.5548 -3.88294
255 2 5.61887 10.477 17.5548 -3.92224
256 2 8.75534 8.88556 19.671 -3.09474
257 2 7.23774 11.28 19.9652 -3.7577
258 2 1.39091 11.0215 19.7031 -3.2014
259 2 1.40472 12.91 17.5548 -3.71628
260 2 7.25273 12.91 17.5548 -3.45178
261 2 0.114574 10.6754 17.5548 -4.01353
262 2 0.114574 5.80937 17.5548 -3.82164
263 2 1.40472 8.04397 17.5548 -3.81297
264 2 7.25273 8.04397 17.5548 -3.98608
265 2 1.40472 3.1779 17.5548 -4.1074
266 2 7.25273 3.1779 17.5548 -3.76243
267 2 0.114574 0.943306 17.5548 -3.42715
268 2 4.32872 13.1085 17.5548 -3.63249
269 2 3.03858 0.744873 17.5548 -3.72216
270 2 5.61887 0.744873 17.5548 -3.48441
379 2 5.66076 8.98314 19.6935 -2.82429
380 2 6.29948 1.56667 21.1899 -2.58025
381 2 2.61869 4.17438 19.5068 -2.75844
382 2 5.36826 2.34309 21.2914 -2.58025
383 2 8.80104 4.08922 19.3492 -3.1361
384 2 4.57781 1.71719 19.3812 -1.80605
385 2 1.3895 1.93864 19.7493 -2.62189
386 2 4.25805 13.3981 21.0815 -1.61949
4 1 4.21416 0.158785 26.1354 -3.41755
6 1 5.61888 2.59181 26.1468 -3.44171
7 1 0 2.59181 26.1468 -3.42973
116 1 7.0236 0.158785 26.1354 -3.41718
117 1 1.40472 0.158785 26.1354 -3.41459
125 1 2.80944 2.59181 26.1468 -3.42902
127 1 7.0236 5.02485 26.1582 -3.42704
128 1 1.40472 5.02485 26.1582 -3.41877
129 1 5.61888 7.45787 26.1696 -3.42584
130 1 0 7.45787 26.1696 -3.41693
131 1 4.21416 5.02485 26.1582 -3.43976
132 1 2.80944 7.45787 26.1696 -3.41312
133 1 7.0236 9.89091 26.181 -3.38611
134 1 1.40472 9.89091 26.181 -3.38902
135 1 5.61888 12.3239 26.1924 -3.40239
136 1 0 12.3239 26.1924 -3.40399
137 1 4.21416 9.89091 26.181 -3.40856
138 1 2.80944 12.3239 26.1924 -3.41275
139 1 5.61888 5.81468 30.8164 -3.35104
140 1 0 5.81468 30.8164 -3.35104
141 1 7.0236 8.24771 30.8277 -3.35103
142 1 1.40472 8.24771 30.8277 -3.35103
143 1 4.21416 8.24771 30.8277 -3.35103
144 1 2.80944 5.81468 30.8164 -3.35104
145 1 7.0236 1.77021 28.4702 -3.35207
146 1 1.40472 1.77021 28.4702 -3.35207
147 1 4.21416 1.77021 28.4702 -3.35207
148 1 7.0236 6.63627 28.493 -3.35105
149 1 1.40472 6.63627 28.493 -3.35104
150 1 5.61888 4.20324 28.4816 -3.35108
151 1 0 4.20324 28.4816 -3.35108
152 1 4.21416 6.63627 28.493 -3.35104
153 1 2.80944 4.20324 28.4816 -3.35108
154 1 5.61888 9.06931 28.5044 -3.35104
155 1 0 9.06931 28.5044 -3.35104
156 1 7.0236 11.5023 28.5158 -3.35223
157 1 1.40472 11.5023 28.5158 -3.35223
158 1 4.21416 11.5023 28.5158 -3.35223
159 1 2.80944 9.06931 28.5044 -3.35104
160 1 2.80944 0.94862 30.7936 -3.3559
161 1 2.80944 13.9354 28.5271 -3.34153
162 1 0 0.94862 30.7936 -3.3559
163 1 0 13.9354 28.5271 -3.34154
164 1 5.61888 0.94862 30.7936 -3.3559
165 1 5.61888 13.9354 28.5271 -3.34153
166 1 7.0236 3.38164 30.805 -3.34972
167 1 1.40472 3.38164 30.805 -3.34972
168 1 4.21416 3.38164 30.805 -3.34972
179 1 4.21416 13.1138 30.8505 -3.35589
180 1 5.61888 10.6807 30.8392 -3.34972
181 1 0 10.6807 30.8392 -3.34973
183 1 7.0236 13.1138 30.8505 -3.3559
185 1 1.40472 13.1138 30.8505 -3.35589
186 1 2.80944 10.6807 30.8392 -3.34972
169 1 5.61888 7.42612 33.1512 -3.35104
170 1 0 7.42612 33.1512 -3.35104
171 1 7.0236 9.85914 33.1626 -3.35108
172 1 1.40472 9.85914 33.1626 -3.35108
173 1 4.21416 9.85914 33.1626 -3.35108
174 1 2.80944 7.42612 33.1512 -3.35104
175 1 5.61888 12.2922 33.1739 -3.35206
176 1 0 12.2922 33.1739 -3.35206
177 1 2.80944 12.2922 33.1739 -3.35206
178 1 4.21416 0.127019 33.117 -3.34154
182 1 7.0236 0.127019 33.117 -3.34154
184 1 1.40472 0.127019 33.117 -3.34154
187 1 5.61888 2.56006 33.1284 -3.35222
188 1 0 2.56006 33.1284 -3.35222
189 1 7.0236 4.99308 33.1397 -3.35105
190 1 1.40472 4.99308 33.1397 -3.35104
191 1 4.21416 4.99308 33.1397 -3.35104
192 1 2.80944 2.56006 33.1284 -3.35222
193 1 5.61888 12.2604 40.1555 -2.97112
194 1 0 12.2604 40.1555 -2.97112
195 1 2.80944 12.2604 40.1555 -2.97111
196 1 7.0236 9.82739 40.1441 -2.97446
197 1 1.40472 9.82739 40.1441 -2.97446
198 1 4.21416 9.82739 40.1441 -2.97446
199 1 5.61888 5.78293 37.7979 -3.43976
200 1 0 5.78293 37.7979 -3.43976
201 1 7.0236 8.21595 37.8093 -3.43975
202 1 1.40472 8.21595 37.8093 -3.43975
203 1 4.21416 8.21595 37.8093 -3.43975
204 1 2.80944 5.78293 37.7979 -3.43976
205 1 4.21416 0.095268 40.0985 -2.9788
206 1 4.21416 13.082 37.8321 -3.44396
207 1 5.61888 2.52829 40.11 -2.97213
208 1 0 2.52829 40.11 -2.97213
209 1 5.61888 10.649 37.8207 -3.43844
210 1 0 10.649 37.8207 -3.43844
211 1 7.0236 0.095268 40.0985 -2.97881
212 1 7.0236 13.082 37.8321 -3.44396
213 1 1.40472 0.095268 40.0985 -2.97881
214 1 1.40472 13.082 37.8321 -3.44396
215 1 2.80944 2.52829 40.11 -2.97213
216 1 2.80944 10.649 37.8207 -3.43844
217 1 7.0236 4.96133 40.1213 -2.97443
218 1 1.40472 4.96133 40.1213 -2.97443
219 1 5.61888 7.39435 40.1327 -2.97441
220 1 0 7.39435 40.1327 -2.97442
221 1 4.21416 4.96133 40.1213 -2.97442
222 1 2.80944 7.39435 40.1327 -2.97441
223 1 5.61888 9.03756 35.4859 -3.35104
224 1 0 9.03756 35.4859 -3.35105
225 1 7.0236 11.4706 35.4973 -3.35223
226 1 1.40472 11.4706 35.4973 -3.35223
227 1 4.21416 11.4706 35.4973 -3.35223
228 1 2.80944 9.03756 35.4859 -3.35104
229 1 2.80944 0.916869 37.7751 -3.4418
230 1 2.80944 13.9036 35.5087 -3.34154
231 1 0 0.916869 37.7751 -3.44181
232 1 0 13.9036 35.5087 -3.34155
233 1 5.61888 0.916869 37.7751 -3.4418
234 1 5.61888 13.9036 35.5087 -3.34154
235 1 7.0236 3.34989 37.7865 -3.43844
236 1 1.40472 3.34989 37.7865 -3.43843
237 1 4.21416 3.34989 37.7865 -3.43843
238 1 7.0236 1.73846 35.4518 -3.35208
239 1 1.40472 1.73846 35.4518 -3.35207
240 1 4.21416 1.73846 35.4518 -3.35207
241 1 7.0236 6.60452 35.4745 -3.35104
242 1 1.40472 6.60452 35.4745 -3.35104
243 1 5.61888 4.17149 35.4632 -3.35108
244 1 0 4.17149 35.4632 -3.35108
245 1 4.21416 6.60452 35.4745 -3.35104
246 1 2.80944 4.17149 35.4632 -3.35108
