ITEM: TIMESTEP
875
ITEM: NUMBER OF ATOMS
18
ITEM: BOX BOUNDS ff ff ff
0.0000000000000000e+00 1.8000000000000000e+01
0.0000000000000000e+00 1.8000000000000000e+01
0.0000000000000000e+00 1.8000000000000000e+01
ITEM: ATOMS id type x y z c_peatom 
9 2 8.99158 8.72387 8.56515 -3.924 
2 1 6.99536 8.77905 8.66933 -5.32398 
1 1 10.2941 7.98007 7.13646 -7.53683 
12 2 9.20861 6.66322 7.4443 -2.58938 
13 2 11.4487 7.5835 8.27437 -2.83665 
4 1 7.27898 11.7905 7.31452 -2.57844 
11 2 7.83307 10.7101 8.54712 -5.56299 
10 2 10.5876 9.9764 7.16907 -2.9424 
3 1 9.85451 10.4261 8.85593 -6.08569 
15 2 7.54852 7.16322 9.44089 -3.14966 
6 1 9.02922 7.9233 10.4884 -8.03792 
17 2 9.93237 6.47323 10.711 -2.63906 
5 1 7.39754 11.044 10.4335 -4.53597 
14 2 7.14434 9.16268 10.5028 -3.85973 
18 2 10.5771 9.21181 10.2494 -3.80094 
8 2 9.24438 11.4036 10.6119 -4.01954 
7 1 10.0664 10.1526 11.8085 -5.00753 
16 2 8.92859 8.78021 12.213 -3.38957 
