ITEM: TIMESTEP
696
ITEM: NUMBER OF ATOMS
18
ITEM: BOX BOUNDS ff ff ff
0.0000000000000000e+00 1.8000000000000000e+01
0.0000000000000000e+00 1.8000000000000000e+01
0.0000000000000000e+00 1.8000000000000000e+01
ITEM: ATOMS id type x y z c_peatom
1 1 7.75751 7.59758 7.08134 -5.03755
8 2 8.63247 6.71219 8.46924 -3.91319
2 1 10.3321 6.62626 7.57113 -4.60928
9 2 9.52358 7.63715 6.21956 -4.41226
10 2 11.4863 8.20371 7.87859 -4.14485
11 2 7.54068 9.03574 8.16381 -3.26127
12 2 8.2951 11.7176 6.94111 -3.56784
3 1 10.4604 9.24681 6.71893 -4.59008
4 1 9.55882 11.8538 7.94597 -4.72035
13 2 9.67004 9.87979 8.36758 -4.18968
5 1 8.45753 8.40841 9.83991 -10.0348
15 2 7.30697 7.18335 10.3169 -2.47936
14 2 8.48091 8.32868 11.9274 -3.21705
16 2 10.5103 7.9587 10.5461 -3.74509
17 2 7.42081 9.70766 10.3601 -2.48715
6 1 11.1789 9.40596 9.51429 -5.21631
18 2 9.66331 10.0865 10.7031 -3.50616
7 1 10.115 8.96528 12.1139 -5.17551
