ITEM: TIMESTEP
89
ITEM: NUMBER OF ATOMS
387
ITEM: BOX BOUNDS pp pp pp
0.0000000000000000e+00 8.4283000000000001e+00
0.0000000000000000e+00 1.4598200000000000e+01
0.0000000000000000e+00 4.9476269000000002e+01
ITEM: ATOMS id type x y z c_peatom
66 1 2.92401 12.1652 3.61953 -2.2941
67 1 7.13816 4.86606 3.61953 -2.29409
68 1 5.73344 7.2991 5.31004 -6.5982
69 1 7.13816 9.73214 3.61953 -2.29409
70 1 5.73344 12.1652 5.31004 -6.5982
71 1 7.13816 0 3.61953 -2.29408
72 1 5.73344 2.43304 5.31004 -6.5982
73 1 2.92401 7.2991 3.61953 -2.29408
74 1 1.51929 9.73212 5.31004 -6.59819
75 1 2.92401 2.43304 3.61953 -2.29408
76 1 1.51929 4.86606 5.31004 -6.5982
77 1 1.51929 0 5.31004 -6.59819
78 1 0.114574 7.2991 5.80124 -6.54405
79 1 4.32872 9.73212 5.80124 -6.54404
80 1 2.92401 7.2991 7.4917 -6.40207
81 1 0.114574 12.1652 5.80124 -6.54405
82 1 7.13816 9.73214 7.4917 -6.40206
83 1 4.32872 0 5.80124 -6.54405
84 1 2.92401 12.1652 7.4917 -6.40208
85 1 0.114574 2.43304 5.80124 -6.54404
86 1 7.13816 0 7.4917 -6.40207
87 1 4.32872 4.86606 5.80124 -6.54403
88 1 2.92401 2.43304 7.4917 -6.40207
89 1 7.13816 4.86606 7.4917 -6.40206
90 1 5.73344 12.1652 7.98285 -6.40205
93 1 5.73344 7.2991 7.98285 -6.40204
94 1 1.51929 9.73212 7.98285 -6.40204
97 1 5.73344 2.43304 7.98285 -6.40204
98 1 1.51929 4.86606 7.98285 -6.40204
100 1 1.51929 0 7.98285 -6.40204
102 1 4.32872 9.73212 3.12833 -3.27315
103 1 4.32872 4.86606 3.12833 -3.27316
104 1 0.114574 12.1652 3.12833 -3.27315
105 1 0.114574 2.43304 3.12833 -3.27315
106 1 0.114574 7.2991 3.12833 -3.27315
107 1 4.32872 0 3.12833 -3.27314
324 2 3.03858 10.477 4.46474 -3.32409
325 2 1.40472 12.91 4.46474 -3.32409
326 2 4.32872 13.1085 4.46474 -3.32408
327 2 7.25273 3.1779 4.46474 -3.32408
328 2 0.114574 5.80937 4.46474 -3.32409
329 2 5.61887 5.61093 4.46474 -3.32408
330 2 0.114574 10.6754 4.46474 -3.32409
331 2 5.61887 10.477 4.46474 -3.32408
332 2 7.25273 8.04396 4.46474 -3.32409
333 2 0.114574 0.943306 4.46474 -3.32409
334 2 5.61887 0.744873 4.46474 -3.32408
335 2 7.25273 12.91 4.46474 -3.32408
336 2 1.40472 8.04396 4.46474 -3.32407
337 2 4.32872 8.24241 4.46474 -3.32408
338 2 3.03858 5.61092 4.46474 -3.32409
339 2 1.40472 3.1779 4.46474 -3.32408
340 2 4.32872 3.37635 4.46474 -3.32409
341 2 3.03858 0.744859 4.46474 -3.32408
342 2 0.22914 8.98727 6.64644 -4.12705
343 2 7.02359 6.55424 6.64644 -4.12705
344 2 1.51929 6.35579 6.64644 -4.12705
345 2 5.73344 8.78883 6.64644 -4.12705
346 2 2.80944 8.98727 6.64644 -4.12704
347 2 4.44329 11.4203 6.64644 -4.12706
348 2 0.22914 13.8533 6.64644 -4.12706
349 2 7.02359 11.4203 6.64644 -4.12704
350 2 1.51929 11.2219 6.64644 -4.12706
351 2 4.44329 1.68816 6.64644 -4.12706
352 2 5.73344 13.6549 6.64644 -4.12705
353 2 2.80944 13.8533 6.64644 -4.12705
354 2 0.22914 4.1212 6.64644 -4.12705
355 2 1.51929 1.48973 6.64644 -4.12705
356 2 7.02359 1.68816 6.64644 -4.12705
357 2 2.80944 4.1212 6.64644 -4.12704
358 2 5.73344 3.92275 6.64644 -4.12704
359 2 4.44329 6.55424 6.64644 -4.12706
30 1 5.73344 2.43304 14.5279 -6.40125
31 1 4.32872 4.86606 16.2184 -6.35862
32 1 5.73344 12.1652 14.5279 -6.40126
33 1 5.73344 7.2991 14.5279 -6.40126
34 1 4.32872 9.73212 16.2184 -6.32264
35 1 1.51928 4.86606 14.5279 -6.40124
36 1 0.114574 2.43304 16.2184 -6.33613
37 1 1.51928 0 14.5279 -6.40125
38 1 0.114574 12.1652 16.2184 -6.30411
39 1 1.51928 9.73212 14.5279 -6.40124
40 1 0.114574 7.2991 16.2184 -6.37034
41 1 4.32872 0 16.2184 -6.38966
42 1 2.92401 12.1652 10.1646 -6.40196
43 1 2.92401 7.2991 10.1646 -6.40195
44 1 1.51929 9.73212 11.855 -6.4021
45 1 7.13816 4.86606 10.1646 -6.40194
46 1 5.73344 2.43304 11.855 -6.40212
47 1 7.13816 0 10.1646 -6.40195
48 1 5.73344 12.1652 11.855 -6.40212
49 1 7.13816 9.73214 10.1646 -6.40194
50 1 5.73344 7.2991 11.855 -6.40212
51 1 2.92401 2.43304 10.1646 -6.40195
52 1 1.51929 0 11.855 -6.40212
53 1 1.51929 4.86606 11.855 -6.4021
54 1 4.32872 0 12.3462 -6.40196
55 1 2.92401 2.43304 14.0367 -6.38416
56 1 7.13816 0 14.0367 -6.38415
57 1 0.114574 7.2991 12.3462 -6.40197
58 1 0.114574 2.43304 12.3462 -6.40196
59 1 7.13816 4.86606 14.0367 -6.38415
60 1 4.32872 4.86606 12.3462 -6.40196
61 1 2.92401 7.2991 14.0367 -6.38417
62 1 0.114574 12.1652 12.3462 -6.40197
63 1 4.32872 9.73212 12.3462 -6.40196
64 1 7.13816 9.73214 14.0367 -6.38415
65 1 2.92401 12.1652 14.0367 -6.38418
91 1 0.114574 12.1652 9.67335 -6.40208
92 1 4.32872 9.73212 9.67335 -6.40207
95 1 0.114574 7.2991 9.67335 -6.40207
96 1 4.32872 4.86606 9.67335 -6.40207
99 1 0.114574 2.43304 9.67335 -6.40207
101 1 4.32872 0 9.67335 -6.40207
270 2 5.84801 4.1212 15.3731 -4.12743
271 2 7.13816 1.48973 15.3731 -4.12743
272 2 4.21415 1.68818 15.3731 -4.12744
273 2 5.84801 13.8533 15.3731 -4.12743
274 2 7.13816 11.2219 15.3731 -4.12743
275 2 4.21415 11.4203 15.3731 -4.12745
276 2 5.84801 8.98727 15.3731 -4.12743
277 2 7.13816 6.35579 15.3731 -4.12744
278 2 4.21415 6.55424 15.3731 -4.12745
279 2 0 4.1212 15.3731 -4.12742
280 2 2.92401 3.92275 15.3731 -4.12744
281 2 1.63386 6.55424 15.3731 -4.12744
282 2 1.63386 1.68816 15.3731 -4.12743
283 2 0 13.8533 15.3731 -4.12744
284 2 2.92401 13.6549 15.3731 -4.12745
285 2 0 8.98727 15.3731 -4.12744
286 2 2.92401 8.78882 15.3731 -4.12744
287 2 1.63386 11.4203 15.3731 -4.12744
288 2 3.03858 13.8533 11.0098 -4.12708
289 2 1.40472 11.4203 11.0098 -4.12708
290 2 4.32872 11.2219 11.0098 -4.12709
291 2 3.03858 8.98727 11.0098 -4.12707
292 2 1.40472 6.55424 11.0098 -4.12709
293 2 4.32872 6.35579 11.0098 -4.12709
294 2 5.61887 4.1212 11.0098 -4.12707
295 2 0.114574 3.92275 11.0098 -4.12708
296 2 7.25273 6.55424 11.0098 -4.12709
297 2 0.114574 13.6549 11.0098 -4.12709
298 2 5.61887 13.8533 11.0098 -4.12707
299 2 7.25273 1.68818 11.0098 -4.12709
300 2 7.25273 11.4203 11.0098 -4.12707
301 2 5.61887 8.98727 11.0098 -4.12708
302 2 0.114574 8.78882 11.0098 -4.12709
303 2 3.03858 4.1212 11.0098 -4.12707
304 2 4.32872 1.48973 11.0098 -4.12708
305 2 1.40472 1.68816 11.0098 -4.12708
306 2 5.73344 0.943306 13.1914 -4.12709
307 2 2.80944 0.744873 13.1914 -4.12708
308 2 4.44329 12.91 13.1914 -4.1271
309 2 0.22914 5.61093 13.1914 -4.12709
310 2 7.02359 8.04396 13.1914 -4.12709
311 2 1.51929 8.24241 13.1914 -4.12708
312 2 0.22914 0.744873 13.1914 -4.12709
313 2 7.02359 3.1779 13.1914 -4.12708
314 2 1.51929 3.37635 13.1914 -4.12708
315 2 4.44329 3.1779 13.1914 -4.12709
316 2 5.73344 5.80937 13.1914 -4.1271
317 2 2.80944 5.61093 13.1914 -4.12709
318 2 0.22914 10.477 13.1914 -4.12709
319 2 7.02359 12.91 13.1914 -4.12709
320 2 1.51929 13.1085 13.1914 -4.12709
321 2 4.44329 8.04396 13.1914 -4.12709
322 2 5.73344 10.6754 13.1914 -4.12709
323 2 2.80944 10.477 13.1914 -4.12709
360 2 5.84801 10.477 8.8281 -4.12712
361 2 7.13816 13.1085 8.8281 -4.12713
362 2 0 10.477 8.8281 -4.12713
363 2 1.63386 12.91 8.8281 -4.12713
364 2 4.21415 8.04396 8.8281 -4.12713
365 2 5.84801 5.61093 8.8281 -4.12712
366 2 7.13816 8.24241 8.8281 -4.12713
367 2 1.63386 8.04396 8.8281 -4.12711
368 2 2.92401 10.6754 8.8281 -4.12713
369 2 4.21415 3.1779 8.8281 -4.12712
370 2 5.84801 0.744873 8.8281 -4.12712
371 2 7.13816 3.37635 8.8281 -4.12712
372 2 1.63386 3.1779 8.8281 -4.12711
373 2 2.92401 5.80937 8.8281 -4.12713
374 2 2.92401 0.943306 8.8281 -4.12713
375 2 4.21415 12.91 8.8281 -4.12713
376 2 0 0.744859 8.8281 -4.12713
377 2 0 5.61092 8.8281 -4.12714
1 1 5.61888 0.980371 23.812 -2.96212
2 1 0 0.980371 23.812 -2.96358
3 1 2.80944 0.980371 23.812 -2.97375
4 1 5.61888 5.84643 23.8348 -2.94866
5 1 0 5.84643 23.8348 -3.248
6 1 7.0236 3.41341 23.8235 -3.19509
7 1 1.40472 3.41341 23.8235 -2.95157
8 1 4.21416 3.41341 23.8235 -2.96822
9 1 2.80944 5.84643 23.8348 -3.03385
11 1 4.21416 13.1455 23.869 -2.95924
13 1 1.40472 13.1455 23.869 -2.96066
14 1 1.30308 5.39403 20.7069 -2.4356
15 1 7.74434 7.46609 21.2238 -2.07536
16 1 4.32872 4.86606 18.5106 -5.63227
17 1 2.92401 7.2991 16.7095 -6.50715
18 1 4.919 9.38453 20.8304 -2.31941
19 1 4.32872 9.73212 18.5106 -5.51519
20 1 2.77168 10.5403 21.1892 -3.50544
21 1 2.92401 12.1652 16.7095 -6.48585
22 1 0.114574 12.1652 18.5106 -7.04406
23 1 0.114574 7.2991 18.5106 -4.36717
24 1 7.13816 9.73214 16.7095 -6.44616
25 1 0.114574 2.43304 18.5106 -5.579
26 1 7.13816 4.86606 16.7095 -6.54654
27 1 4.32872 0 18.5106 -4.14323
28 1 2.92401 2.43304 16.7095 -6.51186
29 1 7.13816 0 16.7095 -6.48556
108 1 0.165133 10.3665 21.0163 -3.63523
109 1 6.39887 12.3361 20.7619 -4.4087
110 1 7.13816 9.73214 19.0018 -5.32004
111 1 2.92401 12.1652 19.0018 -5.05014
112 1 7.13816 4.86606 19.0018 -4.14912
113 1 2.92401 2.43304 19.0018 -4.60781
114 1 2.92401 7.2991 19.0018 -5.11917
115 1 7.13816 0 19.0018 -5.19725
116 1 7.0236 13.1455 23.869 -3.07842
117 1 7.0236 8.27947 23.8462 -3.20072
118 1 2.80944 10.7125 23.8576 -3.16129
120 1 0 10.7125 23.8576 -3.12639
121 1 1.40472 8.27947 23.8462 -3.04512
122 1 5.61888 10.7125 23.8576 -3.04406
125 1 4.21416 8.27947 23.8462 -3.07116
247 1 7.00366 2.59384 20.729 -1.13625
248 2 0.408933 4.12165 19.4775 -2.78962
249 2 0.399792 9.17453 19.4417 -2.79175
250 2 4.32872 3.37635 17.5548 -3.77033
251 2 3.03858 5.61093 17.5548 -3.90985
252 2 5.61887 5.61093 17.5548 -3.6011
253 2 2.98565 9.14675 19.7247 -3.20685
254 2 4.42259 11.2667 19.8704 -3.4014
255 2 4.32872 8.24241 17.5548 -3.90868
256 2 3.03858 10.477 17.5548 -3.8876
257 2 5.61887 10.477 17.5548 -3.66257
258 2 1.40472 12.91 17.5548 -3.81385
259 2 7.25273 12.91 17.5548 -4.09434
260 2 0.114574 10.6754 17.5548 -4.20937
261 2 0.114574 5.80937 17.5548 -3.61978
262 2 1.40472 8.04397 17.5548 -3.68631
263 2 7.25273 8.04397 17.5548 -3.64059
264 2 1.40472 3.1779 17.5548 -4.06924
265 2 7.25273 3.1779 17.5548 -3.73944
266 2 0.114574 0.943306 17.5548 -3.47402
267 2 4.32872 13.1085 17.5548 -3.70196
268 2 3.03858 0.744873 17.5548 -3.5208
269 2 5.61887 0.744873 17.5548 -3.73187
378 2 1.50866 11.0993 19.6845 -3.69206
379 2 7.32619 11.3516 19.57 -3.85861
380 2 4.38935 0.360972 21.1781 -2.46844
381 2 8.32626 13.5064 19.9504 -2.51218
382 2 4.49505 6.56223 19.5269 -2.11977
383 2 2.61979 4.312 19.587 -2.6208
384 2 5.79766 13.3723 19.2799 -3.35469
385 2 1.39822 0.599341 20.2735 -2.05173
386 2 1.41804 1.73045 19.7291 -3.44095
387 2 5.17892 14.1134 21.5485 -2.83616
10 1 4.21416 0.158785 26.1354 -3.43217
12 1 1.40472 0.158785 26.1354 -3.43219
119 1 7.0236 0.158785 26.1354 -3.42187
123 1 5.61888 2.59181 26.1468 -3.43498
124 1 0 2.59181 26.1468 -3.43485
126 1 2.80944 2.59181 26.1468 -3.44171
127 1 7.0236 5.02485 26.1582 -3.41262
128 1 1.40472 5.02485 26.1582 -3.42571
129 1 5.61888 7.45787 26.1696 -3.42064
130 1 0 7.45787 26.1696 -3.42125
131 1 4.21416 5.02485 26.1582 -3.4334
132 1 2.80944 7.45787 26.1696 -3.41685
133 1 7.0236 9.89091 26.181 -3.40561
134 1 1.40472 9.89091 26.181 -3.40827
135 1 5.61888 12.3239 26.1924 -3.42617
136 1 0 12.3239 26.1924 -3.41889
137 1 4.21416 9.89091 26.181 -3.41612
138 1 2.80944 12.3239 26.1924 -3.42428
139 1 5.61888 5.81468 30.8164 -3.35104
140 1 0 5.81468 30.8164 -3.35104
141 1 7.0236 8.24771 30.8277 -3.35103
142 1 1.40472 8.24771 30.8277 -3.35103
143 1 4.21416 8.24771 30.8277 -3.35103
144 1 2.80944 5.81468 30.8164 -3.35104
145 1 7.0236 1.77021 28.4702 -3.35207
146 1 1.40472 1.77021 28.4702 -3.35207
147 1 4.21416 1.77021 28.4702 -3.35207
148 1 7.0236 6.63627 28.493 -3.35105
149 1 1.40472 6.63627 28.493 -3.35104
150 1 5.61888 4.20324 28.4816 -3.35108
151 1 0 4.20324 28.4816 -3.35108
152 1 4.21416 6.63627 28.493 -3.35104
153 1 2.80944 4.20324 28.4816 -3.35108
154 1 5.61888 9.06931 28.5044 -3.35104
155 1 0 9.06931 28.5044 -3.35104
156 1 7.0236 11.5023 28.5158 -3.35223
157 1 1.40472 11.5023 28.5158 -3.35223
158 1 4.21416 11.5023 28.5158 -3.35223
159 1 2.80944 9.06931 28.5044 -3.35104
160 1 2.80944 0.94862 30.7936 -3.3559
161 1 2.80944 13.9354 28.5271 -3.34153
162 1 0 0.94862 30.7936 -3.3559
163 1 0 13.9354 28.5271 -3.34154
164 1 5.61888 0.94862 30.7936 -3.3559
165 1 5.61888 13.9354 28.5271 -3.34153
166 1 7.0236 3.38164 30.805 -3.34972
167 1 1.40472 3.38164 30.805 -3.34972
168 1 4.21416 3.38164 30.805 -3.34972
179 1 4.21416 13.1138 30.8505 -3.35589
180 1 5.61888 10.6807 30.8392 -3.34972
181 1 0 10.6807 30.8392 -3.34973
183 1 7.0236 13.1138 30.8505 -3.3559
185 1 1.40472 13.1138 30.8505 -3.35589
186 1 2.80944 10.6807 30.8392 -3.34972
169 1 5.61888 7.42612 33.1512 -3.35104
170 1 0 7.42612 33.1512 -3.35104
171 1 7.0236 9.85914 33.1626 -3.35108
172 1 1.40472 9.85914 33.1626 -3.35108
173 1 4.21416 9.85914 33.1626 -3.35108
174 1 2.80944 7.42612 33.1512 -3.35104
175 1 5.61888 12.2922 33.1739 -3.35206
176 1 0 12.2922 33.1739 -3.35206
177 1 2.80944 12.2922 33.1739 -3.35206
178 1 4.21416 0.127019 33.117 -3.34154
182 1 7.0236 0.127019 33.117 -3.34154
184 1 1.40472 0.127019 33.117 -3.34154
187 1 5.61888 2.56006 33.1284 -3.35222
188 1 0 2.56006 33.1284 -3.35222
189 1 7.0236 4.99308 33.1397 -3.35105
190 1 1.40472 4.99308 33.1397 -3.35104
191 1 4.21416 4.99308 33.1397 -3.35104
192 1 2.80944 2.56006 33.1284 -3.35222
193 1 5.61888 12.2604 40.1555 -2.97112
194 1 0 12.2604 40.1555 -2.97112
195 1 2.80944 12.2604 40.1555 -2.97111
196 1 7.0236 9.82739 40.1441 -2.97446
197 1 1.40472 9.82739 40.1441 -2.97446
198 1 4.21416 9.82739 40.1441 -2.97446
199 1 5.61888 5.78293 37.7979 -3.43976
200 1 0 5.78293 37.7979 -3.43976
201 1 7.0236 8.21595 37.8093 -3.43975
202 1 1.40472 8.21595 37.8093 -3.43975
203 1 4.21416 8.21595 37.8093 -3.43975
204 1 2.80944 5.78293 37.7979 -3.43976
205 1 4.21416 0.095268 40.0985 -2.9788
206 1 4.21416 13.082 37.8321 -3.44396
207 1 5.61888 2.52829 40.11 -2.97213
208 1 0 2.52829 40.11 -2.97213
209 1 5.61888 10.649 37.8207 -3.43844
210 1 0 10.649 37.8207 -3.43844
211 1 7.0236 0.095268 40.0985 -2.97881
212 1 7.0236 13.082 37.8321 -3.44396
213 1 1.40472 0.095268 40.0985 -2.97881
214 1 1.40472 13.082 37.8321 -3.44396
215 1 2.80944 2.52829 40.11 -2.97213
216 1 2.80944 10.649 37.8207 -3.43844
217 1 7.0236 4.96133 40.1213 -2.97443
218 1 1.40472 4.96133 40.1213 -2.97443
219 1 5.61888 7.39435 40.1327 -2.97441
220 1 0 7.39435 40.1327 -2.97442
221 1 4.21416 4.96133 40.1213 -2.97442
222 1 2.80944 7.39435 40.1327 -2.97441
223 1 5.61888 9.03756 35.4859 -3.35104
224 1 0 9.03756 35.4859 -3.35105
225 1 7.0236 11.4706 35.4973 -3.35223
226 1 1.40472 11.4706 35.4973 -3.35223
227 1 4.21416 11.4706 35.4973 -3.35223
228 1 2.80944 9.03756 35.4859 -3.35104
229 1 2.80944 0.916869 37.7751 -3.4418
230 1 2.80944 13.9036 35.5087 -3.34154
231 1 0 0.916869 37.7751 -3.44181
232 1 0 13.9036 35.5087 -3.34155
233 1 5.61888 0.916869 37.7751 -3.4418
234 1 5.61888 13.9036 35.5087 -3.34154
235 1 7.0236 3.34989 37.7865 -3.43844
236 1 1.40472 3.34989 37.7865 -3.43843
237 1 4.21416 3.34989 37.7865 -3.43843
238 1 7.0236 1.73846 35.4518 -3.35208
239 1 1.40472 1.73846 35.4518 -3.35207
240 1 4.21416 1.73846 35.4518 -3.35207
241 1 7.0236 6.60452 35.4745 -3.35104
242 1 1.40472 6.60452 35.4745 -3.35104
243 1 5.61888 4.17149 35.4632 -3.35108
244 1 0 4.17149 35.4632 -3.35108
245 1 4.21416 6.60452 35.4745 -3.35104
246 1 2.80944 4.17149 35.4632 -3.35108
