ITEM: TIMESTEP
109
ITEM: NUMBER OF ATOMS
386
ITEM: BOX BOUNDS pp pp pp
0.0000000000000000e+00 8.4283000000000001e+00
0.0000000000000000e+00 1.4598200000000000e+01
0.0000000000000000e+00 4.9476269000000002e+01
ITEM: ATOMS id type x y z c_peatom
197 1 2.92401 12.1652 3.61953 -2.2941
198 1 7.13816 4.86606 3.61953 -2.29409
199 1 5.73344 7.2991 5.31004 -6.5982
200 1 7.13816 9.73214 3.61953 -2.29409
201 1 5.73344 12.1652 5.31004 -6.5982
202 1 7.13816 0 3.61953 -2.29408
203 1 5.73344 2.43304 5.31004 -6.5982
204 1 2.92401 7.2991 3.61953 -2.29408
205 1 1.51929 9.73212 5.31004 -6.59819
206 1 2.92401 2.43304 3.61953 -2.29408
207 1 1.51929 4.86606 5.31004 -6.5982
208 1 1.51929 0 5.31004 -6.59819
209 1 0.114574 7.2991 5.80124 -6.54405
210 1 4.32872 9.73212 5.80124 -6.54404
211 1 2.92401 7.2991 7.4917 -6.40207
212 1 0.114574 12.1652 5.80124 -6.54405
213 1 7.13816 9.73214 7.4917 -6.40206
214 1 4.32872 0 5.80124 -6.54405
215 1 2.92401 12.1652 7.4917 -6.40208
216 1 0.114574 2.43304 5.80124 -6.54404
217 1 7.13816 0 7.4917 -6.40207
218 1 4.32872 4.86606 5.80124 -6.54403
219 1 2.92401 2.43304 7.4917 -6.40207
220 1 7.13816 4.86606 7.4917 -6.40206
221 1 5.73344 12.1652 7.98285 -6.40205
224 1 5.73344 7.2991 7.98285 -6.40204
225 1 1.51929 9.73212 7.98285 -6.40204
228 1 5.73344 2.43304 7.98285 -6.40204
229 1 1.51929 4.86606 7.98285 -6.40204
231 1 1.51929 0 7.98285 -6.40204
233 1 4.32872 9.73212 3.12833 -3.27315
234 1 4.32872 4.86606 3.12833 -3.27316
235 1 0.114574 12.1652 3.12833 -3.27315
236 1 0.114574 2.43304 3.12833 -3.27315
237 1 0.114574 7.2991 3.12833 -3.27315
238 1 4.32872 0 3.12833 -3.27314
322 2 3.03858 10.477 4.46474 -3.32409
323 2 1.40472 12.91 4.46474 -3.32409
324 2 4.32872 13.1085 4.46474 -3.32408
325 2 7.25273 3.1779 4.46474 -3.32408
326 2 0.114574 5.80937 4.46474 -3.32409
327 2 5.61887 5.61093 4.46474 -3.32408
328 2 0.114574 10.6754 4.46474 -3.32409
329 2 5.61887 10.477 4.46474 -3.32408
330 2 7.25273 8.04396 4.46474 -3.32409
331 2 0.114574 0.943306 4.46474 -3.32409
332 2 5.61887 0.744873 4.46474 -3.32408
333 2 7.25273 12.91 4.46474 -3.32408
334 2 1.40472 8.04396 4.46474 -3.32407
335 2 4.32872 8.24241 4.46474 -3.32408
336 2 3.03858 5.61092 4.46474 -3.32409
337 2 1.40472 3.1779 4.46474 -3.32408
338 2 4.32872 3.37635 4.46474 -3.32409
339 2 3.03858 0.744859 4.46474 -3.32408
340 2 0.22914 8.98727 6.64644 -4.12705
341 2 7.02359 6.55424 6.64644 -4.12705
342 2 1.51929 6.35579 6.64644 -4.12705
343 2 5.73344 8.78883 6.64644 -4.12705
344 2 2.80944 8.98727 6.64644 -4.12704
345 2 4.44329 11.4203 6.64644 -4.12706
346 2 0.22914 13.8533 6.64644 -4.12706
347 2 7.02359 11.4203 6.64644 -4.12704
348 2 1.51929 11.2219 6.64644 -4.12706
349 2 4.44329 1.68816 6.64644 -4.12706
350 2 5.73344 13.6549 6.64644 -4.12705
351 2 2.80944 13.8533 6.64644 -4.12705
352 2 0.22914 4.1212 6.64644 -4.12705
353 2 1.51929 1.48973 6.64644 -4.12705
354 2 7.02359 1.68816 6.64644 -4.12705
355 2 2.80944 4.1212 6.64644 -4.12704
356 2 5.73344 3.92275 6.64644 -4.12704
357 2 4.44329 6.55424 6.64644 -4.12706
161 1 5.73344 2.43304 14.5279 -6.40125
162 1 4.32872 4.86606 16.2184 -6.40911
163 1 5.73344 12.1652 14.5279 -6.40126
164 1 5.73344 7.2991 14.5279 -6.40126
165 1 4.32872 9.73212 16.2184 -6.39737
166 1 1.51928 4.86606 14.5279 -6.40124
167 1 0.114574 2.43304 16.2184 -6.36839
168 1 1.51928 0 14.5279 -6.40125
169 1 0.114574 12.1652 16.2184 -6.34631
170 1 1.51928 9.73212 14.5279 -6.40124
171 1 0.114574 7.2991 16.2184 -6.3669
172 1 4.32872 0 16.2184 -6.33567
173 1 2.92401 12.1652 10.1646 -6.40196
174 1 2.92401 7.2991 10.1646 -6.40195
175 1 1.51929 9.73212 11.855 -6.4021
176 1 7.13816 4.86606 10.1646 -6.40194
177 1 5.73344 2.43304 11.855 -6.40212
178 1 7.13816 0 10.1646 -6.40195
179 1 5.73344 12.1652 11.855 -6.40212
180 1 7.13816 9.73214 10.1646 -6.40194
181 1 5.73344 7.2991 11.855 -6.40212
182 1 2.92401 2.43304 10.1646 -6.40195
183 1 1.51929 0 11.855 -6.40212
184 1 1.51929 4.86606 11.855 -6.4021
185 1 4.32872 0 12.3462 -6.40196
186 1 2.92401 2.43304 14.0367 -6.38416
187 1 7.13816 0 14.0367 -6.38415
188 1 0.114574 7.2991 12.3462 -6.40197
189 1 0.114574 2.43304 12.3462 -6.40196
190 1 7.13816 4.86606 14.0367 -6.38415
191 1 4.32872 4.86606 12.3462 -6.40196
192 1 2.92401 7.2991 14.0367 -6.38417
193 1 0.114574 12.1652 12.3462 -6.40197
194 1 4.32872 9.73212 12.3462 -6.40196
195 1 7.13816 9.73214 14.0367 -6.38415
196 1 2.92401 12.1652 14.0367 -6.38418
222 1 0.114574 12.1652 9.67335 -6.40208
223 1 4.32872 9.73212 9.67335 -6.40207
226 1 0.114574 7.2991 9.67335 -6.40207
227 1 4.32872 4.86606 9.67335 -6.40207
230 1 0.114574 2.43304 9.67335 -6.40207
232 1 4.32872 0 9.67335 -6.40207
268 2 5.84801 4.1212 15.3731 -4.12743
269 2 7.13816 1.48973 15.3731 -4.12743
270 2 4.21415 1.68818 15.3731 -4.12744
271 2 5.84801 13.8533 15.3731 -4.12743
272 2 7.13816 11.2219 15.3731 -4.12743
273 2 4.21415 11.4203 15.3731 -4.12745
274 2 5.84801 8.98727 15.3731 -4.12743
275 2 7.13816 6.35579 15.3731 -4.12744
276 2 4.21415 6.55424 15.3731 -4.12745
277 2 0 4.1212 15.3731 -4.12742
278 2 2.92401 3.92275 15.3731 -4.12744
279 2 1.63386 6.55424 15.3731 -4.12744
280 2 1.63386 1.68816 15.3731 -4.12743
281 2 0 13.8533 15.3731 -4.12744
282 2 2.92401 13.6549 15.3731 -4.12745
283 2 0 8.98727 15.3731 -4.12744
284 2 2.92401 8.78882 15.3731 -4.12744
285 2 1.63386 11.4203 15.3731 -4.12744
286 2 3.03858 13.8533 11.0098 -4.12708
287 2 1.40472 11.4203 11.0098 -4.12708
288 2 4.32872 11.2219 11.0098 -4.12709
289 2 3.03858 8.98727 11.0098 -4.12707
290 2 1.40472 6.55424 11.0098 -4.12709
291 2 4.32872 6.35579 11.0098 -4.12709
292 2 5.61887 4.1212 11.0098 -4.12707
293 2 0.114574 3.92275 11.0098 -4.12708
294 2 7.25273 6.55424 11.0098 -4.12709
295 2 0.114574 13.6549 11.0098 -4.12709
296 2 5.61887 13.8533 11.0098 -4.12707
297 2 7.25273 1.68818 11.0098 -4.12709
298 2 7.25273 11.4203 11.0098 -4.12707
299 2 5.61887 8.98727 11.0098 -4.12708
300 2 0.114574 8.78882 11.0098 -4.12709
301 2 3.03858 4.1212 11.0098 -4.12707
302 2 4.32872 1.48973 11.0098 -4.12708
303 2 1.40472 1.68816 11.0098 -4.12708
304 2 5.73344 0.943306 13.1914 -4.12709
305 2 2.80944 0.744873 13.1914 -4.12708
306 2 4.44329 12.91 13.1914 -4.1271
307 2 0.22914 5.61093 13.1914 -4.12709
308 2 7.02359 8.04396 13.1914 -4.12709
309 2 1.51929 8.24241 13.1914 -4.12708
310 2 0.22914 0.744873 13.1914 -4.12709
311 2 7.02359 3.1779 13.1914 -4.12708
312 2 1.51929 3.37635 13.1914 -4.12708
313 2 4.44329 3.1779 13.1914 -4.12709
314 2 5.73344 5.80937 13.1914 -4.1271
315 2 2.80944 5.61093 13.1914 -4.12709
316 2 0.22914 10.477 13.1914 -4.12709
317 2 7.02359 12.91 13.1914 -4.12709
318 2 1.51929 13.1085 13.1914 -4.12709
319 2 4.44329 8.04396 13.1914 -4.12709
320 2 5.73344 10.6754 13.1914 -4.12709
321 2 2.80944 10.477 13.1914 -4.12709
358 2 5.84801 10.477 8.8281 -4.12712
359 2 7.13816 13.1085 8.8281 -4.12713
360 2 0 10.477 8.8281 -4.12713
361 2 1.63386 12.91 8.8281 -4.12713
362 2 4.21415 8.04396 8.8281 -4.12713
363 2 5.84801 5.61093 8.8281 -4.12712
364 2 7.13816 8.24241 8.8281 -4.12713
365 2 1.63386 8.04396 8.8281 -4.12711
366 2 2.92401 10.6754 8.8281 -4.12713
367 2 4.21415 3.1779 8.8281 -4.12712
368 2 5.84801 0.744873 8.8281 -4.12712
369 2 7.13816 3.37635 8.8281 -4.12712
370 2 1.63386 3.1779 8.8281 -4.12711
371 2 2.92401 5.80937 8.8281 -4.12713
372 2 2.92401 0.943306 8.8281 -4.12713
373 2 4.21415 12.91 8.8281 -4.12713
374 2 0 0.744859 8.8281 -4.12713
375 2 0 5.61092 8.8281 -4.12714
1 1 5.61888 0.980371 23.812 -2.98291
2 1 0 0.980371 23.812 -3.17396
3 1 2.80944 0.980371 23.812 -3.06991
4 1 5.61888 5.84643 23.8348 -3.10639
5 1 0 5.84643 23.8348 -3.05401
6 1 7.0236 3.41341 23.8235 -2.95103
7 1 1.40472 3.41341 23.8235 -2.95427
8 1 4.21416 3.41341 23.8235 -2.99395
9 1 2.80944 5.84643 23.8348 -3.23459
22 1 5.61888 10.7125 23.8576 -3.08143
23 1 0 10.7125 23.8576 -2.90981
24 1 7.0236 8.27947 23.8462 -3.15419
25 1 1.40472 8.27947 23.8462 -3.14454
26 1 4.21416 8.27947 23.8462 -3.27223
27 1 2.80944 10.7125 23.8576 -3.23307
29 1 4.21416 13.1455 23.869 -3.09781
31 1 7.0236 13.1455 23.869 -3.13157
33 1 1.40472 13.1455 23.869 -3.31879
145 1 7.13816 0 19.0018 -2.56571
146 1 0.203356 14.1217 21.378 -1.89536
147 1 2.32082 12.6372 21.3674 -2.69976
148 1 7.13816 9.73214 19.0018 -3.53553
149 1 4.32872 4.86606 18.5106 -3.00071
150 1 2.92401 7.2991 16.7095 -6.61974
151 1 4.32872 9.73212 18.5106 -3.25007
152 1 2.92401 12.1652 16.7095 -6.49492
153 1 0.114574 12.1652 18.5106 -5.29095
154 1 0.114574 7.2991 18.5106 -3.74816
155 1 7.13816 9.73214 16.7095 -6.55362
156 1 0.114574 2.43304 18.5106 -5.1723
157 1 7.13816 4.86606 16.7095 -6.53354
158 1 4.32872 0 18.5106 -5.61614
159 1 2.92401 2.43304 16.7095 -6.47234
160 1 7.13816 0 16.7095 -6.57864
239 1 2.45425 10.0061 20.9316 -2.29125
240 1 2.92401 12.1652 19.0018 -5.34347
241 1 7.13816 4.86606 19.0018 -4.73752
242 1 2.92401 2.43304 19.0018 -5.37491
243 1 2.92401 7.2991 19.0018 -3.03993
244 1 0.787074 7.99061 21.2283 -2.48388
245 1 3.92287 5.95111 21.4863 -2.35138
246 1 3.35903 0.566587 21.1862 -4.99706
247 1 1.38763 5.17238 20.8 -3.22982
248 1 4.8935 8.71827 21.209 -2.11575
249 2 7.01897 11.5019 19.5795 -3.51572
250 2 4.32872 3.37635 17.5548 -3.28736
251 2 3.03858 5.61093 17.5548 -3.24747
252 2 5.61887 5.61093 17.5548 -3.35236
253 2 4.32872 8.24241 17.5548 -3.2472
254 2 3.03858 10.477 17.5548 -3.45385
255 2 5.61887 10.477 17.5548 -3.46226
256 2 1.40472 12.91 17.5548 -3.93817
257 2 7.25273 12.91 17.5548 -3.5944
258 2 0.114574 10.6754 17.5548 -3.72708
259 2 0.114574 5.80937 17.5548 -3.80797
260 2 1.40472 8.04397 17.5548 -3.37446
261 2 7.25273 8.04397 17.5548 -3.36322
262 2 1.40472 3.1779 17.5548 -3.6599
263 2 7.25273 3.1779 17.5548 -3.83183
264 2 0.114574 0.943306 17.5548 -3.60304
265 2 4.32872 13.1085 17.5548 -3.77026
266 2 3.03858 0.744873 17.5548 -3.9654
267 2 5.61887 0.744873 17.5548 -3.49189
376 2 1.39439 11.3441 19.7562 -2.59594
377 2 1.47566 1.10507 20.9526 -2.13089
378 2 0.385596 4.16074 19.5256 -2.78183
379 2 7.08939 11.7469 20.7972 -2.15377
380 2 2.03933 6.46458 21.9962 -2.02753
381 2 4.20797 1.39846 19.604 -3.46537
382 2 7.35268 6.50229 19.8631 -2.8154
383 2 2.65289 13.958 19.6509 -3.29727
384 2 8.06184 6.38428 20.9974 -2.49049
385 2 1.75309 1.2534 19.672 -3.55074
386 2 3.13463 2.49323 20.9763 -1.73708
10 1 7.0236 5.02485 26.1582 -3.40894
11 1 1.40472 5.02485 26.1582 -3.3868
12 1 5.61888 7.45787 26.1696 -3.40841
13 1 0 7.45787 26.1696 -3.40444
14 1 4.21416 5.02485 26.1582 -3.38634
15 1 2.80944 7.45787 26.1696 -3.35483
16 1 7.0236 9.89091 26.181 -3.43032
17 1 1.40472 9.89091 26.181 -3.40913
18 1 5.61888 12.3239 26.1924 -3.39942
19 1 0 12.3239 26.1924 -3.41421
20 1 4.21416 9.89091 26.181 -3.39689
21 1 2.80944 12.3239 26.1924 -3.39613
28 1 4.21416 0.158785 26.1354 -3.41271
30 1 7.0236 0.158785 26.1354 -3.41325
32 1 1.40472 0.158785 26.1354 -3.38757
34 1 5.61888 2.59181 26.1468 -3.43222
35 1 0 2.59181 26.1468 -3.42026
36 1 2.80944 2.59181 26.1468 -3.41528
37 1 5.61888 5.81468 30.8164 -3.35104
38 1 0 5.81468 30.8164 -3.35104
39 1 7.0236 8.24771 30.8277 -3.35103
40 1 1.40472 8.24771 30.8277 -3.35103
41 1 4.21416 8.24771 30.8277 -3.35103
42 1 2.80944 5.81468 30.8164 -3.35104
43 1 7.0236 1.77021 28.4702 -3.35207
44 1 1.40472 1.77021 28.4702 -3.35207
45 1 4.21416 1.77021 28.4702 -3.35207
46 1 7.0236 6.63627 28.493 -3.35105
47 1 1.40472 6.63627 28.493 -3.35104
48 1 5.61888 4.20324 28.4816 -3.35108
49 1 0 4.20324 28.4816 -3.35108
50 1 4.21416 6.63627 28.493 -3.35104
51 1 2.80944 4.20324 28.4816 -3.35108
52 1 5.61888 9.06931 28.5044 -3.35104
53 1 0 9.06931 28.5044 -3.35104
54 1 7.0236 11.5023 28.5158 -3.35223
55 1 1.40472 11.5023 28.5158 -3.35223
56 1 4.21416 11.5023 28.5158 -3.35223
57 1 2.80944 9.06931 28.5044 -3.35104
58 1 2.80944 0.94862 30.7936 -3.3559
59 1 2.80944 13.9354 28.5271 -3.34153
60 1 0 0.94862 30.7936 -3.3559
61 1 0 13.9354 28.5271 -3.34154
62 1 5.61888 0.94862 30.7936 -3.3559
63 1 5.61888 13.9354 28.5271 -3.34153
64 1 7.0236 3.38164 30.805 -3.34972
65 1 1.40472 3.38164 30.805 -3.34972
66 1 4.21416 3.38164 30.805 -3.34972
77 1 4.21416 13.1138 30.8505 -3.35589
78 1 5.61888 10.6807 30.8392 -3.34972
79 1 0 10.6807 30.8392 -3.34973
81 1 7.0236 13.1138 30.8505 -3.3559
83 1 1.40472 13.1138 30.8505 -3.35589
84 1 2.80944 10.6807 30.8392 -3.34972
67 1 5.61888 7.42612 33.1512 -3.35104
68 1 0 7.42612 33.1512 -3.35104
69 1 7.0236 9.85914 33.1626 -3.35108
70 1 1.40472 9.85914 33.1626 -3.35108
71 1 4.21416 9.85914 33.1626 -3.35108
72 1 2.80944 7.42612 33.1512 -3.35104
73 1 5.61888 12.2922 33.1739 -3.35206
74 1 0 12.2922 33.1739 -3.35206
75 1 2.80944 12.2922 33.1739 -3.35206
76 1 4.21416 0.127019 33.117 -3.34154
80 1 7.0236 0.127019 33.117 -3.34154
82 1 1.40472 0.127019 33.117 -3.34154
85 1 5.61888 2.56006 33.1284 -3.35222
86 1 0 2.56006 33.1284 -3.35222
87 1 7.0236 4.99308 33.1397 -3.35105
88 1 1.40472 4.99308 33.1397 -3.35104
89 1 4.21416 4.99308 33.1397 -3.35104
90 1 2.80944 2.56006 33.1284 -3.35222
91 1 5.61888 12.2604 40.1555 -2.97112
92 1 0 12.2604 40.1555 -2.97112
93 1 2.80944 12.2604 40.1555 -2.97111
94 1 7.0236 9.82739 40.1441 -2.97446
95 1 1.40472 9.82739 40.1441 -2.97446
96 1 4.21416 9.82739 40.1441 -2.97446
97 1 5.61888 5.78293 37.7979 -3.43976
98 1 0 5.78293 37.7979 -3.43976
99 1 7.0236 8.21595 37.8093 -3.43975
100 1 1.40472 8.21595 37.8093 -3.43975
101 1 4.21416 8.21595 37.8093 -3.43975
102 1 2.80944 5.78293 37.7979 -3.43976
103 1 4.21416 0.095268 40.0985 -2.9788
104 1 4.21416 13.082 37.8321 -3.44396
105 1 5.61888 2.52829 40.11 -2.97213
106 1 0 2.52829 40.11 -2.97213
107 1 5.61888 10.649 37.8207 -3.43844
108 1 0 10.649 37.8207 -3.43844
109 1 7.0236 0.095268 40.0985 -2.97881
110 1 7.0236 13.082 37.8321 -3.44396
111 1 1.40472 0.095268 40.0985 -2.97881
112 1 1.40472 13.082 37.8321 -3.44396
113 1 2.80944 2.52829 40.11 -2.97213
114 1 2.80944 10.649 37.8207 -3.43844
115 1 7.0236 4.96133 40.1213 -2.97443
116 1 1.40472 4.96133 40.1213 -2.97443
117 1 5.61888 7.39435 40.1327 -2.97441
118 1 0 7.39435 40.1327 -2.97442
119 1 4.21416 4.96133 40.1213 -2.97442
120 1 2.80944 7.39435 40.1327 -2.97441
121 1 5.61888 9.03756 35.4859 -3.35104
122 1 0 9.03756 35.4859 -3.35105
123 1 7.0236 11.4706 35.4973 -3.35223
124 1 1.40472 11.4706 35.4973 -3.35223
125 1 4.21416 11.4706 35.4973 -3.35223
126 1 2.80944 9.03756 35.4859 -3.35104
127 1 2.80944 0.916869 37.7751 -3.4418
128 1 2.80944 13.9036 35.5087 -3.34154
129 1 0 0.916869 37.7751 -3.44181
130 1 0 13.9036 35.5087 -3.34155
131 1 5.61888 0.916869 37.7751 -3.4418
132 1 5.61888 13.9036 35.5087 -3.34154
133 1 7.0236 3.34989 37.7865 -3.43844
134 1 1.40472 3.34989 37.7865 -3.43843
135 1 4.21416 3.34989 37.7865 -3.43843
136 1 7.0236 1.73846 35.4518 -3.35208
137 1 1.40472 1.73846 35.4518 -3.35207
138 1 4.21416 1.73846 35.4518 -3.35207
139 1 7.0236 6.60452 35.4745 -3.35104
140 1 1.40472 6.60452 35.4745 -3.35104
141 1 5.61888 4.17149 35.4632 -3.35108
142 1 0 4.17149 35.4632 -3.35108
143 1 4.21416 6.60452 35.4745 -3.35104
144 1 2.80944 4.17149 35.4632 -3.35108
