ITEM: TIMESTEP
1044
ITEM: NUMBER OF ATOMS
17
ITEM: BOX BOUNDS ff ff ff
0.0000000000000000e+00 1.8000000000000000e+01
0.0000000000000000e+00 1.8000000000000000e+01
0.0000000000000000e+00 1.8000000000000000e+01
ITEM: ATOMS id type x y z c_peatom
16 2 7.99019 9.07006 4.47883 -2.78274
7 2 8.57379 7.2636 7.44354 -2.84785
17 2 9.75675 6.36092 6.85902 -0.879416
1 1 7.92264 9.02011 6.19552 -7.15634
4 1 7.82766 10.9849 8.0485 -5.15693
8 2 8.55496 10.7803 6.33572 -3.4284
14 2 6.56109 9.99304 7.17804 -3.41639
9 2 9.1949 9.60661 8.20649 -4.39461
11 2 7.62526 7.08712 10.7327 -2.97309
6 1 8.26137 8.07896 9.24518 -6.02165
5 1 9.2189 7.68568 11.8601 -6.17443
12 2 11.0082 6.27273 9.48434 -0.864184
13 2 9.79617 7.14573 9.97217 -3.1523
10 2 10.9005 7.76103 11.883 -2.96968
3 1 7.50176 10.3666 10.92 -2.70105
15 2 8.9364 9.40728 10.7552 -5.72238
2 1 10.0864 10.3898 9.62112 -3.47871
