ITEM: TIMESTEP
392
ITEM: NUMBER OF ATOMS
18
ITEM: BOX BOUNDS ff ff ff
0.0000000000000000e+00 1.8000000000000000e+01
0.0000000000000000e+00 1.8000000000000000e+01
0.0000000000000000e+00 1.8000000000000000e+01
ITEM: ATOMS id type x y z c_peatom
1 1 7.77528 7.66454 7.06285 -5.03637
8 2 8.65108 6.74168 8.42599 -3.91502
2 1 10.3506 6.68009 7.52662 -4.60869
9 2 9.54063 7.72254 6.2004 -4.41249
10 2 11.506 8.25034 7.86891 -4.14443
11 2 7.5624 9.07392 8.18318 -3.26246
12 2 8.31659 11.7879 7.01797 -3.56849
3 1 10.4783 9.32011 6.73537 -4.59079
4 1 9.58263 11.8992 8.02292 -4.72008
13 2 9.69163 9.91518 8.39936 -4.1878
5 1 8.4855 8.40255 9.83766 -10.0369
14 2 7.36164 7.14279 10.2878 -2.47804
15 2 8.5078 8.28042 11.9237 -3.217
16 2 10.5384 7.94278 10.5318 -3.7451
17 2 7.42829 9.66651 10.4014 -2.48662
6 1 11.2031 9.41424 9.53168 -5.21622
18 2 9.68523 10.0642 10.7354 -3.50648
7 1 10.1413 8.91423 12.1218 -5.17486
