ITEM: TIMESTEP
253
ITEM: NUMBER OF ATOMS
18
ITEM: BOX BOUNDS ff ff ff
0.0000000000000000e+00 1.8000000000000000e+01
0.0000000000000000e+00 1.8000000000000000e+01
0.0000000000000000e+00 1.8000000000000000e+01
ITEM: ATOMS id type x y z c_peatom
13 2 10.4015 8.41738 5.28332 -2.6484
2 1 7.88002 6.91528 8.64453 -4.69498
9 2 7.9638 8.76656 8.35542 -3.99109
16 2 9.0242 6.6127 7.29557 -3.44813
14 2 10.7361 8.3137 7.80811 -3.11095
6 1 9.30576 8.44647 6.61245 -7.74074
3 1 6.244 9.31712 7.6054 -4.73436
18 2 9.48595 10.1988 7.40228 -2.95617
1 1 8.51422 8.33936 11.6097 -4.61604
8 2 9.22364 7.63778 9.96423 -4.45857
4 1 10.8502 7.02703 10.8398 -4.57395
12 2 11.5892 8.61815 10.2334 -3.96743
17 2 5.45232 9.11619 9.00695 -3.49855
7 1 9.91449 9.44641 9.1397 -7.72347
15 2 9.1795 9.998 11.1085 -3.94697
5 1 11.0292 9.81285 11.6521 -5.59712
10 2 11.0001 10.8211 9.97831 -3.08577
11 2 10.246 8.02462 12.3316 -4.19077
