ITEM: TIMESTEP
1048
ITEM: NUMBER OF ATOMS
17
ITEM: BOX BOUNDS ff ff ff
0.0000000000000000e+00 1.8000000000000000e+01
0.0000000000000000e+00 1.8000000000000000e+01
0.0000000000000000e+00 1.8000000000000000e+01
ITEM: ATOMS id type x y z c_peatom 
1 1 8.87702 7.61442 7.16787 -6.21789 
12 2 7.01292 7.61144 8.10284 -3.72279 
8 2 9.28378 6.36126 8.58697 -3.46593 
10 2 10.3668 8.7358 7.45305 -3.50398 
3 1 7.23133 9.50078 8.84967 -5.82018 
9 2 7.92466 9.36081 6.93557 -3.56716 
13 2 8.26263 11.1016 8.40229 -3.81633 
2 1 9.60953 10.3834 7.14057 -6.11973 
11 2 10.6624 11.2721 8.48231 -3.40095 
5 1 7.71988 6.60521 9.51135 -5.40388 
15 2 7.791 7.27725 11.4111 -4.31906 
16 2 8.83653 8.54357 9.15465 -4.05104 
7 1 6.50073 8.54504 11.4532 -3.65709 
4 1 9.23262 8.68299 11.0525 -5.24357 
17 2 7.75211 9.86887 10.8221 -4.27092 
6 1 9.48796 11.263 9.90666 -5.78321 
14 2 10.5799 9.88129 10.4526 -3.47018 
