ITEM: TIMESTEP
78
ITEM: NUMBER OF ATOMS
383
ITEM: BOX BOUNDS pp pp pp
0.0000000000000000e+00 8.4283000000000001e+00
0.0000000000000000e+00 1.4598200000000000e+01
0.0000000000000000e+00 4.9476269000000002e+01
ITEM: ATOMS id type x y z c_peatom
68 1 2.92401 12.1652 3.61953 -2.2941
69 1 7.13816 4.86606 3.61953 -2.29409
70 1 5.73344 7.2991 5.31004 -6.5982
71 1 7.13816 9.73214 3.61953 -2.29409
72 1 5.73344 12.1652 5.31004 -6.5982
73 1 7.13816 0 3.61953 -2.29408
74 1 5.73344 2.43304 5.31004 -6.5982
75 1 2.92401 7.2991 3.61953 -2.29408
76 1 1.51929 9.73212 5.31004 -6.59819
77 1 2.92401 2.43304 3.61953 -2.29408
78 1 1.51929 4.86606 5.31004 -6.5982
79 1 1.51929 0 5.31004 -6.59819
80 1 0.114574 7.2991 5.80124 -6.54405
81 1 4.32872 9.73212 5.80124 -6.54404
82 1 2.92401 7.2991 7.4917 -6.40207
83 1 0.114574 12.1652 5.80124 -6.54405
84 1 7.13816 9.73214 7.4917 -6.40206
85 1 4.32872 0 5.80124 -6.54405
86 1 2.92401 12.1652 7.4917 -6.40208
87 1 0.114574 2.43304 5.80124 -6.54404
88 1 7.13816 0 7.4917 -6.40207
89 1 4.32872 4.86606 5.80124 -6.54403
90 1 2.92401 2.43304 7.4917 -6.40207
91 1 7.13816 4.86606 7.4917 -6.40206
92 1 5.73344 12.1652 7.98285 -6.40205
95 1 5.73344 7.2991 7.98285 -6.40204
96 1 1.51929 9.73212 7.98285 -6.40204
99 1 5.73344 2.43304 7.98285 -6.40204
100 1 1.51929 4.86606 7.98285 -6.40204
102 1 1.51929 0 7.98285 -6.40204
104 1 4.32872 9.73212 3.12833 -3.27315
105 1 4.32872 4.86606 3.12833 -3.27316
106 1 0.114574 12.1652 3.12833 -3.27315
107 1 0.114574 2.43304 3.12833 -3.27315
108 1 0.114574 7.2991 3.12833 -3.27315
109 1 4.32872 0 3.12833 -3.27314
323 2 3.03858 10.477 4.46474 -3.32409
324 2 1.40472 12.91 4.46474 -3.32409
325 2 4.32872 13.1085 4.46474 -3.32408
326 2 7.25273 3.1779 4.46474 -3.32408
327 2 0.114574 5.80937 4.46474 -3.32409
328 2 5.61887 5.61093 4.46474 -3.32408
329 2 0.114574 10.6754 4.46474 -3.32409
330 2 5.61887 10.477 4.46474 -3.32408
331 2 7.25273 8.04396 4.46474 -3.32409
332 2 0.114574 0.943306 4.46474 -3.32409
333 2 5.61887 0.744873 4.46474 -3.32408
334 2 7.25273 12.91 4.46474 -3.32408
335 2 1.40472 8.04396 4.46474 -3.32407
336 2 4.32872 8.24241 4.46474 -3.32408
337 2 3.03858 5.61092 4.46474 -3.32409
338 2 1.40472 3.1779 4.46474 -3.32408
339 2 4.32872 3.37635 4.46474 -3.32409
340 2 3.03858 0.744859 4.46474 -3.32408
341 2 0.22914 8.98727 6.64644 -4.12705
342 2 7.02359 6.55424 6.64644 -4.12705
343 2 1.51929 6.35579 6.64644 -4.12705
344 2 5.73344 8.78883 6.64644 -4.12705
345 2 2.80944 8.98727 6.64644 -4.12704
346 2 4.44329 11.4203 6.64644 -4.12706
347 2 0.22914 13.8533 6.64644 -4.12706
348 2 7.02359 11.4203 6.64644 -4.12704
349 2 1.51929 11.2219 6.64644 -4.12706
350 2 4.44329 1.68816 6.64644 -4.12706
351 2 5.73344 13.6549 6.64644 -4.12705
352 2 2.80944 13.8533 6.64644 -4.12705
353 2 0.22914 4.1212 6.64644 -4.12705
354 2 1.51929 1.48973 6.64644 -4.12705
355 2 7.02359 1.68816 6.64644 -4.12705
356 2 2.80944 4.1212 6.64644 -4.12704
357 2 5.73344 3.92275 6.64644 -4.12704
358 2 4.44329 6.55424 6.64644 -4.12706
32 1 5.73344 2.43304 14.5279 -6.40121
33 1 4.32872 4.86606 16.2184 -6.42014
34 1 5.73344 12.1652 14.5279 -6.40126
35 1 5.73344 7.2991 14.5279 -6.40126
36 1 4.32872 9.73212 16.2184 -6.34184
37 1 1.51928 4.86606 14.5279 -6.40125
38 1 0.114574 2.43304 16.2184 -6.37219
39 1 1.51928 0 14.5279 -6.40125
40 1 0.114574 12.1652 16.2184 -6.34671
41 1 1.51928 9.73212 14.5279 -6.40124
42 1 0.114574 7.2991 16.2184 -6.33436
43 1 4.32872 0 16.2184 -6.38208
44 1 2.92401 12.1652 10.1646 -6.40196
45 1 2.92401 7.2991 10.1646 -6.40195
46 1 1.51929 9.73212 11.855 -6.4021
47 1 7.13816 4.86606 10.1646 -6.40194
48 1 5.73344 2.43304 11.855 -6.40212
49 1 7.13816 0 10.1646 -6.40195
50 1 5.73344 12.1652 11.855 -6.40212
51 1 7.13816 9.73214 10.1646 -6.40194
52 1 5.73344 7.2991 11.855 -6.40212
53 1 2.92401 2.43304 10.1646 -6.40195
54 1 1.51929 0 11.855 -6.40212
55 1 1.51929 4.86606 11.855 -6.4021
56 1 4.32872 0 12.3462 -6.40196
57 1 2.92401 2.43304 14.0367 -6.38416
58 1 7.13816 0 14.0367 -6.38415
59 1 0.114574 7.2991 12.3462 -6.40197
60 1 0.114574 2.43304 12.3462 -6.40196
61 1 7.13816 4.86606 14.0367 -6.38404
62 1 4.32872 4.86606 12.3462 -6.40196
63 1 2.92401 7.2991 14.0367 -6.38417
64 1 0.114574 12.1652 12.3462 -6.40197
65 1 4.32872 9.73212 12.3462 -6.40196
66 1 7.13816 9.73214 14.0367 -6.38415
67 1 2.92401 12.1652 14.0367 -6.38418
93 1 0.114574 12.1652 9.67335 -6.40208
94 1 4.32872 9.73212 9.67335 -6.40207
97 1 0.114574 7.2991 9.67335 -6.40207
98 1 4.32872 4.86606 9.67335 -6.40207
101 1 0.114574 2.43304 9.67335 -6.40207
103 1 4.32872 0 9.67335 -6.40207
269 2 5.84801 4.1212 15.3731 -4.12742
270 2 7.13816 1.48973 15.3731 -4.12743
271 2 4.21415 1.68818 15.3731 -4.12744
272 2 5.84801 13.8533 15.3731 -4.12743
273 2 7.13816 11.2219 15.3731 -4.12743
274 2 4.21415 11.4203 15.3731 -4.12745
275 2 5.84801 8.98727 15.3731 -4.12743
276 2 7.13816 6.35579 15.3731 -4.12744
277 2 4.21415 6.55424 15.3731 -4.12745
278 2 0 4.1212 15.3731 -4.12742
279 2 2.92401 3.92275 15.3731 -4.12744
280 2 1.63386 6.55424 15.3731 -4.12744
281 2 1.63386 1.68816 15.3731 -4.12743
282 2 0 13.8533 15.3731 -4.12744
283 2 2.92401 13.6549 15.3731 -4.12745
284 2 0 8.98727 15.3731 -4.12744
285 2 2.92401 8.78882 15.3731 -4.12744
286 2 1.63386 11.4203 15.3731 -4.12744
287 2 3.03858 13.8533 11.0098 -4.12708
288 2 1.40472 11.4203 11.0098 -4.12708
289 2 4.32872 11.2219 11.0098 -4.12709
290 2 3.03858 8.98727 11.0098 -4.12707
291 2 1.40472 6.55424 11.0098 -4.12709
292 2 4.32872 6.35579 11.0098 -4.12709
293 2 5.61887 4.1212 11.0098 -4.12707
294 2 0.114574 3.92275 11.0098 -4.12708
295 2 7.25273 6.55424 11.0098 -4.12709
296 2 0.114574 13.6549 11.0098 -4.12709
297 2 5.61887 13.8533 11.0098 -4.12707
298 2 7.25273 1.68818 11.0098 -4.12709
299 2 7.25273 11.4203 11.0098 -4.12707
300 2 5.61887 8.98727 11.0098 -4.12708
301 2 0.114574 8.78882 11.0098 -4.12709
302 2 3.03858 4.1212 11.0098 -4.12707
303 2 4.32872 1.48973 11.0098 -4.12708
304 2 1.40472 1.68816 11.0098 -4.12708
305 2 5.73344 0.943306 13.1914 -4.12709
306 2 2.80944 0.744873 13.1914 -4.12708
307 2 4.44329 12.91 13.1914 -4.1271
308 2 0.22914 5.61093 13.1914 -4.12709
309 2 7.02359 8.04396 13.1914 -4.12709
310 2 1.51929 8.24241 13.1914 -4.12708
311 2 0.22914 0.744873 13.1914 -4.12709
312 2 7.02359 3.1779 13.1914 -4.12708
313 2 1.51929 3.37635 13.1914 -4.12708
314 2 4.44329 3.1779 13.1914 -4.12709
315 2 5.73344 5.80937 13.1914 -4.1271
316 2 2.80944 5.61093 13.1914 -4.12709
317 2 0.22914 10.477 13.1914 -4.12709
318 2 7.02359 12.91 13.1914 -4.12709
319 2 1.51929 13.1085 13.1914 -4.12709
320 2 4.44329 8.04396 13.1914 -4.12709
321 2 5.73344 10.6754 13.1914 -4.12709
322 2 2.80944 10.477 13.1914 -4.12709
359 2 5.84801 10.477 8.8281 -4.12712
360 2 7.13816 13.1085 8.8281 -4.12713
361 2 0 10.477 8.8281 -4.12713
362 2 1.63386 12.91 8.8281 -4.12713
363 2 4.21415 8.04396 8.8281 -4.12713
364 2 5.84801 5.61093 8.8281 -4.12712
365 2 7.13816 8.24241 8.8281 -4.12713
366 2 1.63386 8.04396 8.8281 -4.12711
367 2 2.92401 10.6754 8.8281 -4.12713
368 2 4.21415 3.1779 8.8281 -4.12712
369 2 5.84801 0.744873 8.8281 -4.12712
370 2 7.13816 3.37635 8.8281 -4.12712
371 2 1.63386 3.1779 8.8281 -4.12711
372 2 2.92401 5.80937 8.8281 -4.12713
373 2 2.92401 0.943306 8.8281 -4.12713
374 2 4.21415 12.91 8.8281 -4.12713
375 2 0 0.744859 8.8281 -4.12713
376 2 0 5.61092 8.8281 -4.12714
1 1 5.61888 0.980371 23.812 -3.08109
2 1 0 0.980371 23.812 -2.94312
3 1 2.80944 0.980371 23.812 -2.94407
4 1 5.61888 5.84643 23.8348 -3.03341
5 1 0 5.84643 23.8348 -3.15938
6 1 7.0236 3.41341 23.8235 -3.15714
7 1 1.40472 3.41341 23.8235 -3.08276
8 1 4.21416 3.41341 23.8235 -2.95176
9 1 2.80944 5.84643 23.8348 -2.9588
11 1 4.21416 13.1455 23.869 -3.3048
15 1 1.40472 13.1455 23.869 -3.07849
16 1 5.47323 13.2802 21.4867 -2.53185
17 1 7.13816 4.86606 19.0018 -3.66824
18 1 0.912995 5.27342 19.6147 -3.72144
19 1 4.32872 4.86606 18.5106 -2.96252
20 1 2.92401 7.2991 16.7095 -6.54055
21 1 5.73076 10.6532 21.1516 -3.62354
22 1 4.32872 9.73212 18.5106 -5.51852
23 1 2.92401 12.1652 16.7095 -6.45469
24 1 0.114574 12.1652 18.5106 -5.51718
25 1 0.114574 7.2991 18.5106 -5.29207
26 1 7.13816 9.73214 16.7095 -6.41705
27 1 0.114574 2.43304 18.5106 -4.02878
28 1 7.13816 4.86606 16.7095 -6.51298
29 1 4.32872 0 18.5106 -4.18457
30 1 2.92401 2.43304 16.7095 -6.62864
31 1 7.13816 0 16.7095 -6.59486
110 1 0.187201 10.543 21.1085 -3.38212
111 1 7.13816 9.73214 19.0018 -6.25934
112 1 2.92401 12.1652 19.0018 -6.21361
113 1 2.92401 2.43304 19.0018 -2.38839
114 1 2.92401 7.2991 19.0018 -3.31551
115 1 7.13816 0 19.0018 -2.47205
116 1 7.80836 4.44894 21.5566 -2.65168
117 1 2.96291 12.1021 21.364 -3.01609
118 1 0 10.7125 23.8576 -3.14976
120 1 7.0236 13.1455 23.869 -3.14975
121 1 5.61888 10.7125 23.8576 -3.17881
122 1 7.0236 8.27947 23.8462 -2.93917
123 1 1.40472 8.27947 23.8462 -2.94661
124 1 4.21416 8.27947 23.8462 -2.9512
126 1 2.80944 10.7125 23.8576 -3.11687
247 2 5.16473 0.524645 21.0241 -0.645947
248 2 0.0596869 3.80638 19.6447 -2.84226
249 2 4.32872 3.37635 17.5548 -3.24835
250 2 3.03858 5.61093 17.5548 -3.29186
251 2 5.61887 5.61093 17.5548 -3.29494
252 2 4.52201 11.3939 19.6771 -3.2462
253 2 4.32872 8.24241 17.5548 -3.52364
254 2 3.03858 10.477 17.5548 -3.94969
255 2 5.61887 10.477 17.5548 -3.99797
256 2 5.6218 9.15691 19.7507 -2.65071
257 2 1.40472 12.91 17.5548 -3.96115
258 2 7.25273 12.91 17.5548 -3.52921
259 2 0.114574 10.6754 17.5548 -4.0616
260 2 0.114574 5.80937 17.5548 -3.96437
261 2 1.40472 8.04397 17.5548 -3.88439
262 2 7.25273 8.04397 17.5548 -3.8439
263 2 1.40472 3.1779 17.5548 -3.35473
264 2 7.25273 3.1779 17.5548 -3.62493
265 2 0.114574 0.943306 17.5548 -3.3929
266 2 4.32872 13.1085 17.5548 -3.85702
267 2 3.03858 0.744873 17.5548 -3.41401
268 2 5.61887 0.744873 17.5548 -3.40223
377 2 0.38234 9.19483 19.601 -2.7543
378 2 1.4457 11.2545 19.725 -3.21432
379 2 7.16958 11.3627 19.7424 -3.38325
380 2 4.55823 5.41706 21.3058 0
381 2 2.83978 13.8312 19.7004 -2.2937
382 2 1.44955 6.88506 19.7346 -2.47419
383 2 1.28226 4.90414 21.4532 -1.73979
10 1 4.21416 0.158785 26.1354 -3.40556
12 1 5.61888 2.59181 26.1468 -3.41122
13 1 0 2.59181 26.1468 -3.42577
14 1 1.40472 0.158785 26.1354 -3.42196
119 1 7.0236 0.158785 26.1354 -3.42062
125 1 2.80944 2.59181 26.1468 -3.4301
127 1 7.0236 5.02485 26.1582 -3.41937
128 1 1.40472 5.02485 26.1582 -3.42662
129 1 5.61888 7.45787 26.1696 -3.4341
130 1 0 7.45787 26.1696 -3.42274
131 1 4.21416 5.02485 26.1582 -3.43478
132 1 2.80944 7.45787 26.1696 -3.43975
133 1 7.0236 9.89091 26.181 -3.40652
134 1 1.40472 9.89091 26.181 -3.41302
135 1 5.61888 12.3239 26.1924 -3.39866
136 1 0 12.3239 26.1924 -3.40121
137 1 4.21416 9.89091 26.181 -3.40784
138 1 2.80944 12.3239 26.1924 -3.4097
139 1 5.61888 5.81468 30.8164 -3.35104
140 1 0 5.81468 30.8164 -3.35104
141 1 7.0236 8.24771 30.8277 -3.35103
142 1 1.40472 8.24771 30.8277 -3.35103
143 1 4.21416 8.24771 30.8277 -3.35103
144 1 2.80944 5.81468 30.8164 -3.35104
145 1 7.0236 1.77021 28.4702 -3.35207
146 1 1.40472 1.77021 28.4702 -3.35207
147 1 4.21416 1.77021 28.4702 -3.35207
148 1 7.0236 6.63627 28.493 -3.35105
149 1 1.40472 6.63627 28.493 -3.35104
150 1 5.61888 4.20324 28.4816 -3.35108
151 1 0 4.20324 28.4816 -3.35108
152 1 4.21416 6.63627 28.493 -3.35104
153 1 2.80944 4.20324 28.4816 -3.35108
154 1 5.61888 9.06931 28.5044 -3.35104
155 1 0 9.06931 28.5044 -3.35104
156 1 7.0236 11.5023 28.5158 -3.35223
157 1 1.40472 11.5023 28.5158 -3.35223
158 1 4.21416 11.5023 28.5158 -3.35223
159 1 2.80944 9.06931 28.5044 -3.35104
160 1 2.80944 0.94862 30.7936 -3.3559
161 1 2.80944 13.9354 28.5271 -3.34153
162 1 0 0.94862 30.7936 -3.3559
163 1 0 13.9354 28.5271 -3.34154
164 1 5.61888 0.94862 30.7936 -3.3559
165 1 5.61888 13.9354 28.5271 -3.34153
166 1 7.0236 3.38164 30.805 -3.34972
167 1 1.40472 3.38164 30.805 -3.34972
168 1 4.21416 3.38164 30.805 -3.34972
179 1 4.21416 13.1138 30.8505 -3.35589
180 1 5.61888 10.6807 30.8392 -3.34972
181 1 0 10.6807 30.8392 -3.34973
183 1 7.0236 13.1138 30.8505 -3.3559
185 1 1.40472 13.1138 30.8505 -3.35589
186 1 2.80944 10.6807 30.8392 -3.34972
169 1 5.61888 7.42612 33.1512 -3.35104
170 1 0 7.42612 33.1512 -3.35104
171 1 7.0236 9.85914 33.1626 -3.35108
172 1 1.40472 9.85914 33.1626 -3.35108
173 1 4.21416 9.85914 33.1626 -3.35108
174 1 2.80944 7.42612 33.1512 -3.35104
175 1 5.61888 12.2922 33.1739 -3.35206
176 1 0 12.2922 33.1739 -3.35206
177 1 2.80944 12.2922 33.1739 -3.35206
178 1 4.21416 0.127019 33.117 -3.34154
182 1 7.0236 0.127019 33.117 -3.34154
184 1 1.40472 0.127019 33.117 -3.34154
187 1 5.61888 2.56006 33.1284 -3.35222
188 1 0 2.56006 33.1284 -3.35222
189 1 7.0236 4.99308 33.1397 -3.35105
190 1 1.40472 4.99308 33.1397 -3.35104
191 1 4.21416 4.99308 33.1397 -3.35104
192 1 2.80944 2.56006 33.1284 -3.35222
193 1 5.61888 12.2604 40.1555 -2.97112
194 1 0 12.2604 40.1555 -2.97112
195 1 2.80944 12.2604 40.1555 -2.97111
196 1 7.0236 9.82739 40.1441 -2.97446
197 1 1.40472 9.82739 40.1441 -2.97446
198 1 4.21416 9.82739 40.1441 -2.97446
199 1 5.61888 5.78293 37.7979 -3.43976
200 1 0 5.78293 37.7979 -3.43976
201 1 7.0236 8.21595 37.8093 -3.43975
202 1 1.40472 8.21595 37.8093 -3.43975
203 1 4.21416 8.21595 37.8093 -3.43975
204 1 2.80944 5.78293 37.7979 -3.43976
205 1 4.21416 0.095268 40.0985 -2.9788
206 1 4.21416 13.082 37.8321 -3.44396
207 1 5.61888 2.52829 40.11 -2.97213
208 1 0 2.52829 40.11 -2.97213
209 1 5.61888 10.649 37.8207 -3.43844
210 1 0 10.649 37.8207 -3.43844
211 1 7.0236 0.095268 40.0985 -2.97881
212 1 7.0236 13.082 37.8321 -3.44396
213 1 1.40472 0.095268 40.0985 -2.97881
214 1 1.40472 13.082 37.8321 -3.44396
215 1 2.80944 2.52829 40.11 -2.97213
216 1 2.80944 10.649 37.8207 -3.43844
217 1 7.0236 4.96133 40.1213 -2.97443
218 1 1.40472 4.96133 40.1213 -2.97443
219 1 5.61888 7.39435 40.1327 -2.97441
220 1 0 7.39435 40.1327 -2.97442
221 1 4.21416 4.96133 40.1213 -2.97442
222 1 2.80944 7.39435 40.1327 -2.97441
223 1 5.61888 9.03756 35.4859 -3.35104
224 1 0 9.03756 35.4859 -3.35105
225 1 7.0236 11.4706 35.4973 -3.35223
226 1 1.40472 11.4706 35.4973 -3.35223
227 1 4.21416 11.4706 35.4973 -3.35223
228 1 2.80944 9.03756 35.4859 -3.35104
229 1 2.80944 0.916869 37.7751 -3.4418
230 1 2.80944 13.9036 35.5087 -3.34154
231 1 0 0.916869 37.7751 -3.44181
232 1 0 13.9036 35.5087 -3.34155
233 1 5.61888 0.916869 37.7751 -3.4418
234 1 5.61888 13.9036 35.5087 -3.34154
235 1 7.0236 3.34989 37.7865 -3.43844
236 1 1.40472 3.34989 37.7865 -3.43843
237 1 4.21416 3.34989 37.7865 -3.43843
238 1 7.0236 1.73846 35.4518 -3.35208
239 1 1.40472 1.73846 35.4518 -3.35207
240 1 4.21416 1.73846 35.4518 -3.35207
241 1 7.0236 6.60452 35.4745 -3.35104
242 1 1.40472 6.60452 35.4745 -3.35104
243 1 5.61888 4.17149 35.4632 -3.35108
244 1 0 4.17149 35.4632 -3.35108
245 1 4.21416 6.60452 35.4745 -3.35104
246 1 2.80944 4.17149 35.4632 -3.35108
