ITEM: TIMESTEP
174
ITEM: NUMBER OF ATOMS
18
ITEM: BOX BOUNDS ff ff ff
0.0000000000000000e+00 1.8000000000000000e+01
0.0000000000000000e+00 1.8000000000000000e+01
0.0000000000000000e+00 1.8000000000000000e+01
ITEM: ATOMS id type x y z c_peatom
1 1 6.09094 8.8593 8.4636 -5.14682
2 1 8.59551 7.44434 8.27431 -5.87104
8 2 6.68745 7.13326 8.51324 -3.4857
3 1 11.6986 8.28765 7.9557 -7.00108
9 2 11.2809 7.73792 6.39437 -2.78671
10 2 10.5378 6.69366 8.65105 -3.44108
11 2 8 9.31781 8.21228 -4.12098
4 1 9.76525 10.5051 7.93168 -5.12465
12 2 11.5116 10.088 7.38581 -3.36221
13 2 8.56994 7.52968 10.1589 -3.91484
5 1 10.524 7.23182 10.5117 -5.80998
15 2 10.0768 8.89592 9.08193 -4.27992
14 2 9.86483 8.92561 11.458 -3.87858
16 2 12.0471 8.35891 10.1262 -3.57945
6 1 8.28108 9.49275 10.2307 -6.43626
17 2 6.33518 9.15156 10.2339 -3.46408
7 1 11.1005 10.0119 10.6363 -5.1285
18 2 9.63213 11.0398 9.76843 -3.77848
