ITEM: TIMESTEP
325
ITEM: NUMBER OF ATOMS
18
ITEM: BOX BOUNDS ff ff ff
0.0000000000000000e+00 1.8000000000000000e+01
0.0000000000000000e+00 1.8000000000000000e+01
0.0000000000000000e+00 1.8000000000000000e+01
ITEM: ATOMS id type x y z c_peatom 
12 2 7.0932 8.53203 5.97552 -3.39437 
3 1 8.84331 7.90598 6.04406 -5.85047 
6 1 6.84939 8.7685 7.85899 -5.45768 
13 2 8.68841 8.31005 8.02465 -4.0733 
11 2 8.37706 6.32096 6.25709 -3.09247 
5 1 6.65367 11.3695 8.9418 -3.89213 
17 2 7.55469 10.5345 7.56944 -4.24621 
10 2 10.7088 10.5628 7.54595 -2.70786 
7 1 9.33758 10.1259 8.50399 -6.89539 
8 2 9.4024 5.64937 9.67024 -2.684 
9 2 7.49835 7.57145 10.8511 -3.52827 
1 1 9.12577 7.33607 9.89004 -7.70042 
18 2 10.1468 7.62193 11.4856 -3.49376 
14 2 10.6258 8.62367 9.21858 -3.54304 
4 1 7.42457 9.39325 10.9443 -4.83646 
16 2 6.11397 9.75797 9.5664 -4.36704 
2 1 10.8762 9.19252 10.9831 -4.93478 
15 2 9.22466 10.0571 10.5022 -3.88154 
