ITEM: TIMESTEP
1053
ITEM: NUMBER OF ATOMS
18
ITEM: BOX BOUNDS ff ff ff
0.0000000000000000e+00 1.8000000000000000e+01
0.0000000000000000e+00 1.8000000000000000e+01
0.0000000000000000e+00 1.8000000000000000e+01
ITEM: ATOMS id type x y z c_peatom 
17 2 5.2054 8.85563 8.48166 -2.28749 
3 1 6.91135 8.47276 8.59325 -11.9634 
8 2 6.43198 6.76075 8.50244 -2.21128 
18 2 6.85785 8.57287 6.84913 -2.29969 
12 2 10.7772 7.25361 8.03873 -4.00341 
1 1 12.4214 7.61087 8.45638 -3.94802 
16 2 8.74198 9.22614 7.99407 -2.93853 
5 1 7.62806 7.83054 11.3844 -5.3559 
10 2 8.33001 7.31062 9.67876 -3.58609 
14 2 6.10528 8.14031 10.4735 -3.09573 
7 1 11.1948 7.28024 11.3102 -2.73885 
4 1 9.82754 8.43658 9.24883 -6.42091 
11 2 12.0877 8.31336 10.2277 -5.82255 
9 2 6.98114 10.1599 9.14159 -2.22392 
15 2 7.89408 9.64904 11.6071 -3.97967 
6 1 9.65421 9.64863 11.9786 -4.21256 
13 2 10.1148 10.2203 10.2758 -4.71856 
2 1 11.9283 10.185 10.4435 -3.66454 
