ITEM: TIMESTEP
1124
ITEM: NUMBER OF ATOMS
18
ITEM: BOX BOUNDS ff ff ff
0.0000000000000000e+00 1.8000000000000000e+01
0.0000000000000000e+00 1.8000000000000000e+01
0.0000000000000000e+00 1.8000000000000000e+01
ITEM: ATOMS id type x y z c_peatom 
16 2 9.93725 10.0522 5.76821 -2.97257 
4 1 6.81503 8.56369 7.93416 -6.44101 
9 2 8.0371 8.06304 6.57171 -3.5065 
3 1 9.39467 7.33474 7.55529 -5.77307 
14 2 10.6236 7.55369 6.10747 -3.3952 
15 2 10.258 8.96204 8.16782 -3.78432 
11 2 7.03708 10.2204 7.71056 -2.97676 
1 1 11.2201 9.2537 6.50707 -6.08292 
13 2 9.32804 11.299 8.50184 -3.96569 
2 1 8.85148 12.7919 8.70093 -3.96569 
6 1 7.52715 6.78968 9.92671 -3.78192 
10 2 8.34348 8.2607 9.2267 -4.14378 
12 2 6.21908 8.03494 10.079 -3.99013 
7 1 11.6611 8.19998 9.35078 -6.83453 
8 2 10.6237 8.23573 10.6895 -2.80638 
5 1 7.26403 9.48608 10.9129 -5.34823 
18 2 12.3568 9.71727 9.62415 -2.81651 
17 2 7.41938 8.89626 12.4452 -3.34614 
