ITEM: TIMESTEP
66
ITEM: NUMBER OF ATOMS
383
ITEM: BOX BOUNDS pp pp pp
0.0000000000000000e+00 8.4283000000000001e+00
0.0000000000000000e+00 1.4598200000000000e+01
0.0000000000000000e+00 4.9476269000000002e+01
ITEM: ATOMS id type x y z c_peatom
63 1 2.92401 12.1652 3.61953 -2.2941
64 1 7.13816 4.86606 3.61953 -2.29409
65 1 5.73344 7.2991 5.31004 -6.5982
66 1 7.13816 9.73214 3.61953 -2.29409
67 1 5.73344 12.1652 5.31004 -6.5982
68 1 7.13816 0 3.61953 -2.29408
69 1 5.73344 2.43304 5.31004 -6.5982
70 1 2.92401 7.2991 3.61953 -2.29408
71 1 1.51929 9.73212 5.31004 -6.59819
72 1 2.92401 2.43304 3.61953 -2.29408
73 1 1.51929 4.86606 5.31004 -6.5982
74 1 1.51929 0 5.31004 -6.59819
75 1 0.114574 7.2991 5.80124 -6.54405
76 1 4.32872 9.73212 5.80124 -6.54404
77 1 2.92401 7.2991 7.4917 -6.40207
78 1 0.114574 12.1652 5.80124 -6.54405
79 1 7.13816 9.73214 7.4917 -6.40206
80 1 4.32872 0 5.80124 -6.54405
81 1 2.92401 12.1652 7.4917 -6.40208
82 1 0.114574 2.43304 5.80124 -6.54404
83 1 7.13816 0 7.4917 -6.40207
84 1 4.32872 4.86606 5.80124 -6.54403
85 1 2.92401 2.43304 7.4917 -6.40207
86 1 7.13816 4.86606 7.4917 -6.40206
87 1 5.73344 12.1652 7.98285 -6.40205
90 1 5.73344 7.2991 7.98285 -6.40204
91 1 1.51929 9.73212 7.98285 -6.40204
94 1 5.73344 2.43304 7.98285 -6.40204
95 1 1.51929 4.86606 7.98285 -6.40204
97 1 1.51929 0 7.98285 -6.40204
99 1 4.32872 9.73212 3.12833 -3.27315
100 1 4.32872 4.86606 3.12833 -3.27316
101 1 0.114574 12.1652 3.12833 -3.27315
102 1 0.114574 2.43304 3.12833 -3.27315
103 1 0.114574 7.2991 3.12833 -3.27315
104 1 4.32872 0 3.12833 -3.27314
330 2 3.03858 10.477 4.46474 -3.32409
331 2 1.40472 12.91 4.46474 -3.32409
332 2 4.32872 13.1085 4.46474 -3.32408
333 2 7.25273 3.1779 4.46474 -3.32408
334 2 0.114574 5.80937 4.46474 -3.32409
335 2 5.61887 5.61093 4.46474 -3.32408
336 2 0.114574 10.6754 4.46474 -3.32409
337 2 5.61887 10.477 4.46474 -3.32408
338 2 7.25273 8.04396 4.46474 -3.32409
339 2 0.114574 0.943306 4.46474 -3.32409
340 2 5.61887 0.744873 4.46474 -3.32408
341 2 7.25273 12.91 4.46474 -3.32408
342 2 1.40472 8.04396 4.46474 -3.32407
343 2 4.32872 8.24241 4.46474 -3.32408
344 2 3.03858 5.61092 4.46474 -3.32409
345 2 1.40472 3.1779 4.46474 -3.32408
346 2 4.32872 3.37635 4.46474 -3.32409
347 2 3.03858 0.744859 4.46474 -3.32408
348 2 0.22914 8.98727 6.64644 -4.12705
349 2 7.02359 6.55424 6.64644 -4.12705
350 2 1.51929 6.35579 6.64644 -4.12705
351 2 5.73344 8.78883 6.64644 -4.12705
352 2 2.80944 8.98727 6.64644 -4.12704
353 2 4.44329 11.4203 6.64644 -4.12706
354 2 0.22914 13.8533 6.64644 -4.12706
355 2 7.02359 11.4203 6.64644 -4.12704
356 2 1.51929 11.2219 6.64644 -4.12706
357 2 4.44329 1.68816 6.64644 -4.12706
358 2 5.73344 13.6549 6.64644 -4.12705
359 2 2.80944 13.8533 6.64644 -4.12705
360 2 0.22914 4.1212 6.64644 -4.12705
361 2 1.51929 1.48973 6.64644 -4.12705
362 2 7.02359 1.68816 6.64644 -4.12705
363 2 2.80944 4.1212 6.64644 -4.12704
364 2 5.73344 3.92275 6.64644 -4.12704
365 2 4.44329 6.55424 6.64644 -4.12706
27 1 5.73344 2.43304 14.5279 -6.40119
28 1 4.32872 4.86606 16.2184 -6.34108
29 1 5.73344 12.1652 14.5279 -6.39969
30 1 5.73344 7.2991 14.5279 -6.40126
31 1 4.32872 9.73212 16.2184 -6.38297
32 1 1.51928 4.86606 14.5279 -6.40124
33 1 0.114574 2.43304 16.2184 -6.38706
34 1 1.51928 0 14.5279 -6.40094
35 1 0.114574 12.1652 16.2184 -6.39351
36 1 1.51928 9.73212 14.5279 -6.40124
37 1 0.114574 7.2991 16.2184 -6.38423
38 1 4.32872 0 16.2184 -6.36653
39 1 2.92401 12.1652 10.1646 -6.40196
40 1 2.92401 7.2991 10.1646 -6.40195
41 1 1.51929 9.73212 11.855 -6.4021
42 1 7.13816 4.86606 10.1646 -6.40194
43 1 5.73344 2.43304 11.855 -6.40212
44 1 7.13816 0 10.1646 -6.40195
45 1 5.73344 12.1652 11.855 -6.40212
46 1 7.13816 9.73214 10.1646 -6.40194
47 1 5.73344 7.2991 11.855 -6.40212
48 1 2.92401 2.43304 10.1646 -6.40195
49 1 1.51929 0 11.855 -6.40212
50 1 1.51929 4.86606 11.855 -6.4021
51 1 4.32872 0 12.3462 -6.40196
52 1 2.92401 2.43304 14.0367 -6.38416
53 1 7.13816 0 14.0367 -6.37913
54 1 0.114574 7.2991 12.3462 -6.40197
55 1 0.114574 2.43304 12.3462 -6.40196
56 1 7.13816 4.86606 14.0367 -6.38415
57 1 4.32872 4.86606 12.3462 -6.40196
58 1 2.92401 7.2991 14.0367 -6.38417
59 1 0.114574 12.1652 12.3462 -6.40197
60 1 4.32872 9.73212 12.3462 -6.40196
61 1 7.13816 9.73214 14.0367 -6.38415
62 1 2.92401 12.1652 14.0367 -6.38418
88 1 0.114574 12.1652 9.67335 -6.40208
89 1 4.32872 9.73212 9.67335 -6.40207
92 1 0.114574 7.2991 9.67335 -6.40207
93 1 4.32872 4.86606 9.67335 -6.40207
96 1 0.114574 2.43304 9.67335 -6.40207
98 1 4.32872 0 9.67335 -6.40207
276 2 5.84801 4.1212 15.3731 -4.12743
277 2 7.13816 1.48973 15.3731 -4.12724
278 2 4.21415 1.68818 15.3731 -4.12744
279 2 5.84801 13.8533 15.3731 -4.12723
280 2 7.13816 11.2219 15.3731 -4.12743
281 2 4.21415 11.4203 15.3731 -4.12745
282 2 5.84801 8.98727 15.3731 -4.12743
283 2 7.13816 6.35579 15.3731 -4.12744
284 2 4.21415 6.55424 15.3731 -4.12745
285 2 0 4.1212 15.3731 -4.12742
286 2 2.92401 3.92275 15.3731 -4.12744
287 2 1.63386 6.55424 15.3731 -4.12744
288 2 1.63386 1.68816 15.3731 -4.12743
289 2 0 13.8533 15.3731 -4.12724
290 2 2.92401 13.6549 15.3731 -4.12745
291 2 0 8.98727 15.3731 -4.12744
292 2 2.92401 8.78882 15.3731 -4.12744
293 2 1.63386 11.4203 15.3731 -4.12744
294 2 3.03858 13.8533 11.0098 -4.12708
295 2 1.40472 11.4203 11.0098 -4.12708
296 2 4.32872 11.2219 11.0098 -4.12709
297 2 3.03858 8.98727 11.0098 -4.12707
298 2 1.40472 6.55424 11.0098 -4.12709
299 2 4.32872 6.35579 11.0098 -4.12709
300 2 5.61887 4.1212 11.0098 -4.12707
301 2 0.114574 3.92275 11.0098 -4.12708
302 2 7.25273 6.55424 11.0098 -4.12709
303 2 0.114574 13.6549 11.0098 -4.12709
304 2 5.61887 13.8533 11.0098 -4.12707
305 2 7.25273 1.68818 11.0098 -4.12709
306 2 7.25273 11.4203 11.0098 -4.12707
307 2 5.61887 8.98727 11.0098 -4.12708
308 2 0.114574 8.78882 11.0098 -4.12709
309 2 3.03858 4.1212 11.0098 -4.12707
310 2 4.32872 1.48973 11.0098 -4.12708
311 2 1.40472 1.68816 11.0098 -4.12708
312 2 5.73344 0.943306 13.1914 -4.12709
313 2 2.80944 0.744873 13.1914 -4.12708
314 2 4.44329 12.91 13.1914 -4.1271
315 2 0.22914 5.61093 13.1914 -4.12709
316 2 7.02359 8.04396 13.1914 -4.12709
317 2 1.51929 8.24241 13.1914 -4.12708
318 2 0.22914 0.744873 13.1914 -4.12709
319 2 7.02359 3.1779 13.1914 -4.12708
320 2 1.51929 3.37635 13.1914 -4.12708
321 2 4.44329 3.1779 13.1914 -4.12709
322 2 5.73344 5.80937 13.1914 -4.1271
323 2 2.80944 5.61093 13.1914 -4.12709
324 2 0.22914 10.477 13.1914 -4.12709
325 2 7.02359 12.91 13.1914 -4.12709
326 2 1.51929 13.1085 13.1914 -4.12709
327 2 4.44329 8.04396 13.1914 -4.12709
328 2 5.73344 10.6754 13.1914 -4.12709
329 2 2.80944 10.477 13.1914 -4.12709
366 2 5.84801 10.477 8.8281 -4.12712
367 2 7.13816 13.1085 8.8281 -4.12713
368 2 0 10.477 8.8281 -4.12713
369 2 1.63386 12.91 8.8281 -4.12713
370 2 4.21415 8.04396 8.8281 -4.12713
371 2 5.84801 5.61093 8.8281 -4.12712
372 2 7.13816 8.24241 8.8281 -4.12713
373 2 1.63386 8.04396 8.8281 -4.12711
374 2 2.92401 10.6754 8.8281 -4.12713
375 2 4.21415 3.1779 8.8281 -4.12712
376 2 5.84801 0.744873 8.8281 -4.12712
377 2 7.13816 3.37635 8.8281 -4.12712
378 2 1.63386 3.1779 8.8281 -4.12711
379 2 2.92401 5.80937 8.8281 -4.12713
380 2 2.92401 0.943306 8.8281 -4.12713
381 2 4.21415 12.91 8.8281 -4.12713
382 2 0 0.744859 8.8281 -4.12713
383 2 0 5.61092 8.8281 -4.12714
1 1 6.38181 1.98523 19.3557 -4.67854
2 1 7.13816 4.86606 19.0018 -2.6642
3 1 6.50811 4.84263 21.7033 -3.09056
4 1 2.92401 7.2991 19.0018 -5.88674
5 1 7.13816 9.73214 19.0018 -2.49373
6 1 2.92401 12.1652 19.0018 -2.98698
7 1 3.32752 12.0269 21.6516 -2.66469
8 1 0.917422 11.1916 21.1119 -2.57756
9 1 7.13816 0 19.0018 -2.78506
10 1 7.18987 1.5077 21.6426 -3.299
11 1 0.321506 13.7268 21.4281 -2.67786
12 1 5.7113 13.7738 21.5193 -2.76325
13 1 3.01188 -0.0991334 21.1737 -2.39201
14 1 2.92401 2.43304 19.0018 -5.01379
15 1 4.32872 4.86606 18.5106 -5.81896
16 1 2.92401 7.2991 16.7095 -6.46946
17 1 4.32872 9.73212 18.5106 -4.37192
18 1 2.92401 12.1652 16.7095 -6.604
19 1 0.114574 12.1652 18.5106 -3.26985
20 1 0.114574 7.2991 18.5106 -4.35065
21 1 7.13816 9.73214 16.7095 -6.62815
22 1 0.114574 2.43304 18.5106 -2.9665
23 1 7.13816 4.86606 16.7095 -6.58403
24 1 4.32872 0 18.5106 -4.14718
25 1 2.92401 2.43304 16.7095 -6.50387
26 1 7.13816 0 16.7095 -6.54752
117 1 7.0236 8.27947 23.8462 -2.94569
118 1 1.40472 8.27947 23.8462 -2.94253
119 1 5.61888 10.7125 23.8576 -3.01838
120 1 0 10.7125 23.8576 -3.11864
121 1 4.21416 8.27947 23.8462 -2.94664
122 1 2.80944 10.7125 23.8576 -3.26392
124 1 4.21416 13.1455 23.869 -3.43227
126 1 7.0236 13.1455 23.869 -3.2762
128 1 1.40472 13.1455 23.869 -3.43134
132 1 5.61888 0.980371 23.812 -3.24092
133 1 0 0.980371 23.812 -3.2425
134 1 2.80944 0.980371 23.812 -3.1368
135 1 7.0236 3.41341 23.8235 -3.24543
136 1 1.40472 3.41341 23.8235 -2.92129
137 1 5.61888 5.84643 23.8348 -3.14015
138 1 0 5.84643 23.8348 -3.09889
139 1 4.21416 3.41341 23.8235 -3.00361
140 1 2.80944 5.84643 23.8348 -2.95182
249 2 6.37797 3.12402 20.8833 -2.3533
250 2 1.47972 6.26331 19.4388 -1.92955
251 2 2.75076 9.07378 19.3959 -1.83561
252 2 -0.177891 4.17261 21.3793 -0.909405
253 2 4.34111 6.38077 19.5983 -1.98176
254 2 7.43002 11.1645 21.2729 -0.646625
255 2 5.446 0.99796 20.8226 -2.28587
256 2 4.60828 2.21533 19.3774 -2.57923
257 2 2.91362 4.23647 19.5259 -2.29516
258 2 4.32872 3.37635 17.5548 -4.01021
259 2 3.03858 5.61093 17.5548 -4.06012
260 2 5.61887 5.61093 17.5548 -3.54749
261 2 4.32872 8.24241 17.5548 -3.81602
262 2 3.03858 10.477 17.5548 -3.47897
263 2 5.61887 10.477 17.5548 -3.38866
264 2 1.40472 12.91 17.5548 -3.24752
265 2 7.25273 12.91 17.5548 -3.24585
266 2 0.114574 10.6754 17.5548 -3.24786
267 2 0.114574 5.80937 17.5548 -3.47466
268 2 1.40472 8.04397 17.5548 -3.92049
269 2 7.25273 8.04397 17.5548 -3.39169
270 2 1.40472 3.1779 17.5548 -3.4148
271 2 7.25273 3.1779 17.5548 -3.48525
272 2 0.114574 0.943306 17.5548 -3.24558
273 2 4.32872 13.1085 17.5548 -3.36316
274 2 3.03858 0.744873 17.5548 -3.60332
275 2 5.61887 0.744873 17.5548 -4.06877
105 1 7.0236 5.02485 26.1582 -3.39856
106 1 1.40472 5.02485 26.1582 -3.42991
107 1 5.61888 7.45787 26.1696 -3.41913
108 1 0 7.45787 26.1696 -3.43046
109 1 4.21416 5.02485 26.1582 -3.42188
110 1 2.80944 7.45787 26.1696 -3.43975
111 1 7.0236 9.89091 26.181 -3.41625
112 1 1.40472 9.89091 26.181 -3.41164
113 1 5.61888 12.3239 26.1924 -3.38705
114 1 0 12.3239 26.1924 -3.38221
115 1 4.21416 9.89091 26.181 -3.41421
116 1 2.80944 12.3239 26.1924 -3.37434
123 1 4.21416 0.158785 26.1354 -3.37268
125 1 7.0236 0.158785 26.1354 -3.38712
127 1 1.40472 0.158785 26.1354 -3.36796
129 1 5.61888 2.59181 26.1468 -3.39701
130 1 0 2.59181 26.1468 -3.39161
131 1 2.80944 2.59181 26.1468 -3.41704
141 1 5.61888 5.81468 30.8164 -3.35104
142 1 0 5.81468 30.8164 -3.35104
143 1 7.0236 8.24771 30.8277 -3.35103
144 1 1.40472 8.24771 30.8277 -3.35103
145 1 4.21416 8.24771 30.8277 -3.35103
146 1 2.80944 5.81468 30.8164 -3.35104
147 1 7.0236 1.77021 28.4702 -3.35207
148 1 1.40472 1.77021 28.4702 -3.35207
149 1 4.21416 1.77021 28.4702 -3.35207
150 1 7.0236 6.63627 28.493 -3.35105
151 1 1.40472 6.63627 28.493 -3.35104
152 1 5.61888 4.20324 28.4816 -3.35108
153 1 0 4.20324 28.4816 -3.35108
154 1 4.21416 6.63627 28.493 -3.35104
155 1 2.80944 4.20324 28.4816 -3.35108
156 1 5.61888 9.06931 28.5044 -3.35104
157 1 0 9.06931 28.5044 -3.35104
158 1 7.0236 11.5023 28.5158 -3.35223
159 1 1.40472 11.5023 28.5158 -3.35223
160 1 4.21416 11.5023 28.5158 -3.35223
161 1 2.80944 9.06931 28.5044 -3.35104
162 1 2.80944 0.94862 30.7936 -3.3559
163 1 2.80944 13.9354 28.5271 -3.34153
164 1 0 0.94862 30.7936 -3.3559
165 1 0 13.9354 28.5271 -3.34154
166 1 5.61888 0.94862 30.7936 -3.3559
167 1 5.61888 13.9354 28.5271 -3.34153
168 1 7.0236 3.38164 30.805 -3.34972
169 1 1.40472 3.38164 30.805 -3.34972
170 1 4.21416 3.38164 30.805 -3.34972
181 1 4.21416 13.1138 30.8505 -3.35589
182 1 5.61888 10.6807 30.8392 -3.34972
183 1 0 10.6807 30.8392 -3.34973
185 1 7.0236 13.1138 30.8505 -3.3559
187 1 1.40472 13.1138 30.8505 -3.35589
188 1 2.80944 10.6807 30.8392 -3.34972
171 1 5.61888 7.42612 33.1512 -3.35104
172 1 0 7.42612 33.1512 -3.35104
173 1 7.0236 9.85914 33.1626 -3.35108
174 1 1.40472 9.85914 33.1626 -3.35108
175 1 4.21416 9.85914 33.1626 -3.35108
176 1 2.80944 7.42612 33.1512 -3.35104
177 1 5.61888 12.2922 33.1739 -3.35206
178 1 0 12.2922 33.1739 -3.35206
179 1 2.80944 12.2922 33.1739 -3.35206
180 1 4.21416 0.127019 33.117 -3.34154
184 1 7.0236 0.127019 33.117 -3.34154
186 1 1.40472 0.127019 33.117 -3.34154
189 1 5.61888 2.56006 33.1284 -3.35222
190 1 0 2.56006 33.1284 -3.35222
191 1 7.0236 4.99308 33.1397 -3.35105
192 1 1.40472 4.99308 33.1397 -3.35104
193 1 4.21416 4.99308 33.1397 -3.35104
194 1 2.80944 2.56006 33.1284 -3.35222
195 1 5.61888 12.2604 40.1555 -2.97112
196 1 0 12.2604 40.1555 -2.97112
197 1 2.80944 12.2604 40.1555 -2.97111
198 1 7.0236 9.82739 40.1441 -2.97446
199 1 1.40472 9.82739 40.1441 -2.97446
200 1 4.21416 9.82739 40.1441 -2.97446
201 1 5.61888 5.78293 37.7979 -3.43976
202 1 0 5.78293 37.7979 -3.43976
203 1 7.0236 8.21595 37.8093 -3.43975
204 1 1.40472 8.21595 37.8093 -3.43975
205 1 4.21416 8.21595 37.8093 -3.43975
206 1 2.80944 5.78293 37.7979 -3.43976
207 1 4.21416 0.095268 40.0985 -2.9788
208 1 4.21416 13.082 37.8321 -3.44396
209 1 5.61888 2.52829 40.11 -2.97213
210 1 0 2.52829 40.11 -2.97213
211 1 5.61888 10.649 37.8207 -3.43844
212 1 0 10.649 37.8207 -3.43844
213 1 7.0236 0.095268 40.0985 -2.97881
214 1 7.0236 13.082 37.8321 -3.44396
215 1 1.40472 0.095268 40.0985 -2.97881
216 1 1.40472 13.082 37.8321 -3.44396
217 1 2.80944 2.52829 40.11 -2.97213
218 1 2.80944 10.649 37.8207 -3.43844
219 1 7.0236 4.96133 40.1213 -2.97443
220 1 1.40472 4.96133 40.1213 -2.97443
221 1 5.61888 7.39435 40.1327 -2.97441
222 1 0 7.39435 40.1327 -2.97442
223 1 4.21416 4.96133 40.1213 -2.97442
224 1 2.80944 7.39435 40.1327 -2.97441
225 1 5.61888 9.03756 35.4859 -3.35104
226 1 0 9.03756 35.4859 -3.35105
227 1 7.0236 11.4706 35.4973 -3.35223
228 1 1.40472 11.4706 35.4973 -3.35223
229 1 4.21416 11.4706 35.4973 -3.35223
230 1 2.80944 9.03756 35.4859 -3.35104
231 1 2.80944 0.916869 37.7751 -3.4418
232 1 2.80944 13.9036 35.5087 -3.34154
233 1 0 0.916869 37.7751 -3.44181
234 1 0 13.9036 35.5087 -3.34155
235 1 5.61888 0.916869 37.7751 -3.4418
236 1 5.61888 13.9036 35.5087 -3.34154
237 1 7.0236 3.34989 37.7865 -3.43844
238 1 1.40472 3.34989 37.7865 -3.43843
239 1 4.21416 3.34989 37.7865 -3.43843
240 1 7.0236 1.73846 35.4518 -3.35208
241 1 1.40472 1.73846 35.4518 -3.35207
242 1 4.21416 1.73846 35.4518 -3.35207
243 1 7.0236 6.60452 35.4745 -3.35104
244 1 1.40472 6.60452 35.4745 -3.35104
245 1 5.61888 4.17149 35.4632 -3.35108
246 1 0 4.17149 35.4632 -3.35108
247 1 4.21416 6.60452 35.4745 -3.35104
248 1 2.80944 4.17149 35.4632 -3.35108
