ITEM: TIMESTEP
64
ITEM: NUMBER OF ATOMS
387
ITEM: BOX BOUNDS pp pp pp
0.0000000000000000e+00 8.4283000000000001e+00
0.0000000000000000e+00 1.4598200000000000e+01
0.0000000000000000e+00 4.9476269000000002e+01
ITEM: ATOMS id type x y z c_peatom
66 1 2.92401 12.1652 3.61953 -2.2941
67 1 7.13816 4.86606 3.61953 -2.29409
68 1 5.73344 7.2991 5.31004 -6.5982
69 1 7.13816 9.73214 3.61953 -2.29409
70 1 5.73344 12.1652 5.31004 -6.5982
71 1 7.13816 0 3.61953 -2.29408
72 1 5.73344 2.43304 5.31004 -6.5982
73 1 2.92401 7.2991 3.61953 -2.29408
74 1 1.51929 9.73212 5.31004 -6.59819
75 1 2.92401 2.43304 3.61953 -2.29408
76 1 1.51929 4.86606 5.31004 -6.5982
77 1 1.51929 0 5.31004 -6.59819
78 1 0.114574 7.2991 5.80124 -6.54405
79 1 4.32872 9.73212 5.80124 -6.54404
80 1 2.92401 7.2991 7.4917 -6.40207
81 1 0.114574 12.1652 5.80124 -6.54405
82 1 7.13816 9.73214 7.4917 -6.40206
83 1 4.32872 0 5.80124 -6.54405
84 1 2.92401 12.1652 7.4917 -6.40208
85 1 0.114574 2.43304 5.80124 -6.54404
86 1 7.13816 0 7.4917 -6.40207
87 1 4.32872 4.86606 5.80124 -6.54403
88 1 2.92401 2.43304 7.4917 -6.40207
89 1 7.13816 4.86606 7.4917 -6.40206
90 1 5.73344 12.1652 7.98285 -6.40205
93 1 5.73344 7.2991 7.98285 -6.40204
94 1 1.51929 9.73212 7.98285 -6.40204
97 1 5.73344 2.43304 7.98285 -6.40204
98 1 1.51929 4.86606 7.98285 -6.40204
100 1 1.51929 0 7.98285 -6.40204
102 1 4.32872 9.73212 3.12833 -3.27315
103 1 4.32872 4.86606 3.12833 -3.27316
104 1 0.114574 12.1652 3.12833 -3.27315
105 1 0.114574 2.43304 3.12833 -3.27315
106 1 0.114574 7.2991 3.12833 -3.27315
107 1 4.32872 0 3.12833 -3.27314
324 2 3.03858 10.477 4.46474 -3.32409
325 2 1.40472 12.91 4.46474 -3.32409
326 2 4.32872 13.1085 4.46474 -3.32408
327 2 7.25273 3.1779 4.46474 -3.32408
328 2 0.114574 5.80937 4.46474 -3.32409
329 2 5.61887 5.61093 4.46474 -3.32408
330 2 0.114574 10.6754 4.46474 -3.32409
331 2 5.61887 10.477 4.46474 -3.32408
332 2 7.25273 8.04396 4.46474 -3.32409
333 2 0.114574 0.943306 4.46474 -3.32409
334 2 5.61887 0.744873 4.46474 -3.32408
335 2 7.25273 12.91 4.46474 -3.32408
336 2 1.40472 8.04396 4.46474 -3.32407
337 2 4.32872 8.24241 4.46474 -3.32408
338 2 3.03858 5.61092 4.46474 -3.32409
339 2 1.40472 3.1779 4.46474 -3.32408
340 2 4.32872 3.37635 4.46474 -3.32409
341 2 3.03858 0.744859 4.46474 -3.32408
342 2 0.22914 8.98727 6.64644 -4.12705
343 2 7.02359 6.55424 6.64644 -4.12705
344 2 1.51929 6.35579 6.64644 -4.12705
345 2 5.73344 8.78883 6.64644 -4.12705
346 2 2.80944 8.98727 6.64644 -4.12704
347 2 4.44329 11.4203 6.64644 -4.12706
348 2 0.22914 13.8533 6.64644 -4.12706
349 2 7.02359 11.4203 6.64644 -4.12704
350 2 1.51929 11.2219 6.64644 -4.12706
351 2 4.44329 1.68816 6.64644 -4.12706
352 2 5.73344 13.6549 6.64644 -4.12705
353 2 2.80944 13.8533 6.64644 -4.12705
354 2 0.22914 4.1212 6.64644 -4.12705
355 2 1.51929 1.48973 6.64644 -4.12705
356 2 7.02359 1.68816 6.64644 -4.12705
357 2 2.80944 4.1212 6.64644 -4.12704
358 2 5.73344 3.92275 6.64644 -4.12704
359 2 4.44329 6.55424 6.64644 -4.12706
30 1 5.73344 2.43304 14.5279 -6.40125
31 1 4.32872 4.86606 16.2184 -6.32925
32 1 5.73344 12.1652 14.5279 -6.40126
33 1 5.73344 7.2991 14.5279 -6.40126
34 1 4.32872 9.73212 16.2184 -6.37989
35 1 1.51928 4.86606 14.5279 -6.40124
36 1 0.114574 2.43304 16.2184 -6.36319
37 1 1.51928 0 14.5279 -6.40125
38 1 0.114574 12.1652 16.2184 -6.33527
39 1 1.51928 9.73212 14.5279 -6.40124
40 1 0.114574 7.2991 16.2184 -6.38463
41 1 4.32872 0 16.2184 -6.37346
42 1 2.92401 12.1652 10.1646 -6.40196
43 1 2.92401 7.2991 10.1646 -6.40195
44 1 1.51929 9.73212 11.855 -6.4021
45 1 7.13816 4.86606 10.1646 -6.40194
46 1 5.73344 2.43304 11.855 -6.40212
47 1 7.13816 0 10.1646 -6.40195
48 1 5.73344 12.1652 11.855 -6.40212
49 1 7.13816 9.73214 10.1646 -6.40194
50 1 5.73344 7.2991 11.855 -6.40212
51 1 2.92401 2.43304 10.1646 -6.40195
52 1 1.51929 0 11.855 -6.40212
53 1 1.51929 4.86606 11.855 -6.4021
54 1 4.32872 0 12.3462 -6.40196
55 1 2.92401 2.43304 14.0367 -6.38416
56 1 7.13816 0 14.0367 -6.38415
57 1 0.114574 7.2991 12.3462 -6.40197
58 1 0.114574 2.43304 12.3462 -6.40196
59 1 7.13816 4.86606 14.0367 -6.38415
60 1 4.32872 4.86606 12.3462 -6.40196
61 1 2.92401 7.2991 14.0367 -6.38417
62 1 0.114574 12.1652 12.3462 -6.40197
63 1 4.32872 9.73212 12.3462 -6.40196
64 1 7.13816 9.73214 14.0367 -6.38415
65 1 2.92401 12.1652 14.0367 -6.38418
91 1 0.114574 12.1652 9.67335 -6.40208
92 1 4.32872 9.73212 9.67335 -6.40207
95 1 0.114574 7.2991 9.67335 -6.40207
96 1 4.32872 4.86606 9.67335 -6.40207
99 1 0.114574 2.43304 9.67335 -6.40207
101 1 4.32872 0 9.67335 -6.40207
270 2 5.84801 4.1212 15.3731 -4.12743
271 2 7.13816 1.48973 15.3731 -4.12743
272 2 4.21415 1.68818 15.3731 -4.12744
273 2 5.84801 13.8533 15.3731 -4.12743
274 2 7.13816 11.2219 15.3731 -4.12743
275 2 4.21415 11.4203 15.3731 -4.12745
276 2 5.84801 8.98727 15.3731 -4.12743
277 2 7.13816 6.35579 15.3731 -4.12744
278 2 4.21415 6.55424 15.3731 -4.12745
279 2 0 4.1212 15.3731 -4.12742
280 2 2.92401 3.92275 15.3731 -4.12744
281 2 1.63386 6.55424 15.3731 -4.12744
282 2 1.63386 1.68816 15.3731 -4.12743
283 2 0 13.8533 15.3731 -4.12744
284 2 2.92401 13.6549 15.3731 -4.12745
285 2 0 8.98727 15.3731 -4.12744
286 2 2.92401 8.78882 15.3731 -4.12744
287 2 1.63386 11.4203 15.3731 -4.12744
288 2 3.03858 13.8533 11.0098 -4.12708
289 2 1.40472 11.4203 11.0098 -4.12708
290 2 4.32872 11.2219 11.0098 -4.12709
291 2 3.03858 8.98727 11.0098 -4.12707
292 2 1.40472 6.55424 11.0098 -4.12709
293 2 4.32872 6.35579 11.0098 -4.12709
294 2 5.61887 4.1212 11.0098 -4.12707
295 2 0.114574 3.92275 11.0098 -4.12708
296 2 7.25273 6.55424 11.0098 -4.12709
297 2 0.114574 13.6549 11.0098 -4.12709
298 2 5.61887 13.8533 11.0098 -4.12707
299 2 7.25273 1.68818 11.0098 -4.12709
300 2 7.25273 11.4203 11.0098 -4.12707
301 2 5.61887 8.98727 11.0098 -4.12708
302 2 0.114574 8.78882 11.0098 -4.12709
303 2 3.03858 4.1212 11.0098 -4.12707
304 2 4.32872 1.48973 11.0098 -4.12708
305 2 1.40472 1.68816 11.0098 -4.12708
306 2 5.73344 0.943306 13.1914 -4.12709
307 2 2.80944 0.744873 13.1914 -4.12708
308 2 4.44329 12.91 13.1914 -4.1271
309 2 0.22914 5.61093 13.1914 -4.12709
310 2 7.02359 8.04396 13.1914 -4.12709
311 2 1.51929 8.24241 13.1914 -4.12708
312 2 0.22914 0.744873 13.1914 -4.12709
313 2 7.02359 3.1779 13.1914 -4.12708
314 2 1.51929 3.37635 13.1914 -4.12708
315 2 4.44329 3.1779 13.1914 -4.12709
316 2 5.73344 5.80937 13.1914 -4.1271
317 2 2.80944 5.61093 13.1914 -4.12709
318 2 0.22914 10.477 13.1914 -4.12709
319 2 7.02359 12.91 13.1914 -4.12709
320 2 1.51929 13.1085 13.1914 -4.12709
321 2 4.44329 8.04396 13.1914 -4.12709
322 2 5.73344 10.6754 13.1914 -4.12709
323 2 2.80944 10.477 13.1914 -4.12709
360 2 5.84801 10.477 8.8281 -4.12712
361 2 7.13816 13.1085 8.8281 -4.12713
362 2 0 10.477 8.8281 -4.12713
363 2 1.63386 12.91 8.8281 -4.12713
364 2 4.21415 8.04396 8.8281 -4.12713
365 2 5.84801 5.61093 8.8281 -4.12712
366 2 7.13816 8.24241 8.8281 -4.12713
367 2 1.63386 8.04396 8.8281 -4.12711
368 2 2.92401 10.6754 8.8281 -4.12713
369 2 4.21415 3.1779 8.8281 -4.12712
370 2 5.84801 0.744873 8.8281 -4.12712
371 2 7.13816 3.37635 8.8281 -4.12712
372 2 1.63386 3.1779 8.8281 -4.12711
373 2 2.92401 5.80937 8.8281 -4.12713
374 2 2.92401 0.943306 8.8281 -4.12713
375 2 4.21415 12.91 8.8281 -4.12713
376 2 0 0.744859 8.8281 -4.12713
377 2 0 5.61092 8.8281 -4.12714
1 1 5.61888 0.980371 23.812 -3.12194
2 1 0 0.980371 23.812 -3.05266
3 1 2.80944 0.980371 23.812 -2.95032
4 1 5.61888 5.84643 23.8348 -3.21228
5 1 0 5.84643 23.8348 -3.09939
6 1 7.0236 3.41341 23.8235 -3.0733
7 1 1.40472 3.41341 23.8235 -3.13835
8 1 4.21416 3.41341 23.8235 -3.03797
9 1 2.80944 5.84643 23.8348 -3.07197
10 1 5.61888 10.7125 23.8576 -3.19233
11 1 0 10.7125 23.8576 -3.28113
12 1 7.0236 8.27947 23.8462 -3.0561
13 1 1.40472 8.27947 23.8462 -2.95516
14 1 4.21416 8.27947 23.8462 -2.94914
15 1 2.80944 10.7125 23.8576 -2.93297
16 1 2.92401 2.43304 19.0018 -4.02361
17 1 4.07383 5.05357 20.9366 -2.61569
18 1 4.32872 4.86606 18.5106 -5.59293
19 1 2.92401 7.2991 16.7095 -6.53021
20 1 4.32872 9.73212 18.5106 -3.51326
21 1 2.92401 12.1652 16.7095 -6.49848
22 1 0.114574 12.1652 18.5106 -5.28841
23 1 0.114574 7.2991 18.5106 -4.17136
24 1 7.13816 9.73214 16.7095 -6.54885
25 1 0.114574 2.43304 18.5106 -4.4191
26 1 7.13816 4.86606 16.7095 -6.47922
27 1 4.32872 0 18.5106 -4.92891
28 1 2.92401 2.43304 16.7095 -6.53844
29 1 7.13816 0 16.7095 -6.45398
108 1 2.92401 12.1652 19.0018 -4.77673
109 1 7.13816 4.86606 19.0018 -5.31798
110 1 7.13816 9.73214 19.0018 -3.01756
111 1 2.92401 7.2991 19.0018 -4.65848
112 1 7.13816 0 19.0018 -5.98813
113 1 1.12347 3.31663 20.6606 -1.48922
114 1 0.834196 9.5293 19.9491 -2.10911
115 1 0.959168 12.4125 21.1708 -3.20933
116 1 4.21416 13.1455 23.869 -3.0132
119 1 1.40472 13.1455 23.869 -3.13176
121 1 7.0236 13.1455 23.869 -3.23816
245 1 5.67569 7.97347 20.334 -2.58379
246 1 6.76437 5.27913 21.2952 -2.59127
247 1 6.63813 14.0639 21.5591 -3.22448
248 1 7.08081 10.8008 21.5317 -2.39266
249 2 1.42631 1.49734 19.5055 -2.22091
250 2 4.59812 6.54166 19.5724 -3.22505
251 2 4.32872 3.37635 17.5548 -3.47532
252 2 3.03858 5.61093 17.5548 -3.7816
253 2 5.61887 5.61093 17.5548 -4.05344
254 2 4.32872 8.24241 17.5548 -3.65568
255 2 3.03858 10.477 17.5548 -3.69095
256 2 5.61887 10.477 17.5548 -3.33599
257 2 1.40472 12.91 17.5548 -3.91191
258 2 7.25273 12.91 17.5548 -3.97398
259 2 0.114574 10.6754 17.5548 -3.53455
260 2 0.114574 5.80937 17.5548 -3.6393
261 2 1.40472 8.04397 17.5548 -3.60272
262 2 7.25273 8.04397 17.5548 -3.46795
263 2 1.40472 3.1779 17.5548 -3.61993
264 2 7.25273 3.1779 17.5548 -3.5163
265 2 0.114574 0.943306 17.5548 -3.59994
266 2 5.70564 -0.935385 19.7853 -2.98752
267 2 4.32872 13.1085 17.5548 -3.6757
268 2 3.03858 0.744873 17.5548 -3.81248
269 2 5.61887 0.744873 17.5548 -3.93033
378 2 3.0564 14.1347 20.8787 -2.13499
379 2 5.68758 2.16639 20.3956 -2.37147
380 2 5.60095 4.30161 19.8105 -3.05958
381 2 3.23767 10.0259 20.9686 -2.08548
382 2 1.3805 11.3788 19.5726 -3.43579
383 2 2.4878 13.7663 19.8012 -3.63393
384 2 6.80104 6.57531 19.5932 -3.00208
385 2 8.44198 13.7489 20.017 -3.00075
386 2 6.73735 1.52363 20.3429 -3.25813
387 2 2.88162 9.41204 19.8975 -3.14554
117 1 4.21416 0.158785 26.1354 -3.42286
118 1 1.40472 0.158785 26.1354 -3.41077
120 1 7.0236 0.158785 26.1354 -3.39949
122 1 5.61888 2.59181 26.1468 -3.40978
123 1 0 2.59181 26.1468 -3.4147
124 1 2.80944 2.59181 26.1468 -3.42375
125 1 7.0236 5.02485 26.1582 -3.41878
126 1 1.40472 5.02485 26.1582 -3.41005
127 1 5.61888 7.45787 26.1696 -3.41221
128 1 0 7.45787 26.1696 -3.42466
129 1 4.21416 5.02485 26.1582 -3.42084
130 1 2.80944 7.45787 26.1696 -3.43034
131 1 7.0236 9.89091 26.181 -3.41082
132 1 1.40472 9.89091 26.181 -3.41727
133 1 5.61888 12.3239 26.1924 -3.40954
134 1 0 12.3239 26.1924 -3.39573
135 1 4.21416 9.89091 26.181 -3.42285
136 1 2.80944 12.3239 26.1924 -3.42007
137 1 5.61888 5.81468 30.8164 -3.35104
138 1 0 5.81468 30.8164 -3.35104
139 1 7.0236 8.24771 30.8277 -3.35103
140 1 1.40472 8.24771 30.8277 -3.35103
141 1 4.21416 8.24771 30.8277 -3.35103
142 1 2.80944 5.81468 30.8164 -3.35104
143 1 7.0236 1.77021 28.4702 -3.35207
144 1 1.40472 1.77021 28.4702 -3.35207
145 1 4.21416 1.77021 28.4702 -3.35207
146 1 7.0236 6.63627 28.493 -3.35105
147 1 1.40472 6.63627 28.493 -3.35104
148 1 5.61888 4.20324 28.4816 -3.35108
149 1 0 4.20324 28.4816 -3.35108
150 1 4.21416 6.63627 28.493 -3.35104
151 1 2.80944 4.20324 28.4816 -3.35108
152 1 5.61888 9.06931 28.5044 -3.35104
153 1 0 9.06931 28.5044 -3.35104
154 1 7.0236 11.5023 28.5158 -3.35223
155 1 1.40472 11.5023 28.5158 -3.35223
156 1 4.21416 11.5023 28.5158 -3.35223
157 1 2.80944 9.06931 28.5044 -3.35104
158 1 2.80944 0.94862 30.7936 -3.3559
159 1 2.80944 13.9354 28.5271 -3.34153
160 1 0 0.94862 30.7936 -3.3559
161 1 0 13.9354 28.5271 -3.34154
162 1 5.61888 0.94862 30.7936 -3.3559
163 1 5.61888 13.9354 28.5271 -3.34153
164 1 7.0236 3.38164 30.805 -3.34972
165 1 1.40472 3.38164 30.805 -3.34972
166 1 4.21416 3.38164 30.805 -3.34972
177 1 4.21416 13.1138 30.8505 -3.35589
178 1 5.61888 10.6807 30.8392 -3.34972
179 1 0 10.6807 30.8392 -3.34973
181 1 7.0236 13.1138 30.8505 -3.3559
183 1 1.40472 13.1138 30.8505 -3.35589
184 1 2.80944 10.6807 30.8392 -3.34972
167 1 5.61888 7.42612 33.1512 -3.35104
168 1 0 7.42612 33.1512 -3.35104
169 1 7.0236 9.85914 33.1626 -3.35108
170 1 1.40472 9.85914 33.1626 -3.35108
171 1 4.21416 9.85914 33.1626 -3.35108
172 1 2.80944 7.42612 33.1512 -3.35104
173 1 5.61888 12.2922 33.1739 -3.35206
174 1 0 12.2922 33.1739 -3.35206
175 1 2.80944 12.2922 33.1739 -3.35206
176 1 4.21416 0.127019 33.117 -3.34154
180 1 7.0236 0.127019 33.117 -3.34154
182 1 1.40472 0.127019 33.117 -3.34154
185 1 5.61888 2.56006 33.1284 -3.35222
186 1 0 2.56006 33.1284 -3.35222
187 1 7.0236 4.99308 33.1397 -3.35105
188 1 1.40472 4.99308 33.1397 -3.35104
189 1 4.21416 4.99308 33.1397 -3.35104
190 1 2.80944 2.56006 33.1284 -3.35222
191 1 5.61888 12.2604 40.1555 -2.97112
192 1 0 12.2604 40.1555 -2.97112
193 1 2.80944 12.2604 40.1555 -2.97111
194 1 7.0236 9.82739 40.1441 -2.97446
195 1 1.40472 9.82739 40.1441 -2.97446
196 1 4.21416 9.82739 40.1441 -2.97446
197 1 5.61888 5.78293 37.7979 -3.43976
198 1 0 5.78293 37.7979 -3.43976
199 1 7.0236 8.21595 37.8093 -3.43975
200 1 1.40472 8.21595 37.8093 -3.43975
201 1 4.21416 8.21595 37.8093 -3.43975
202 1 2.80944 5.78293 37.7979 -3.43976
203 1 4.21416 0.095268 40.0985 -2.9788
204 1 4.21416 13.082 37.8321 -3.44396
205 1 5.61888 2.52829 40.11 -2.97213
206 1 0 2.52829 40.11 -2.97213
207 1 5.61888 10.649 37.8207 -3.43844
208 1 0 10.649 37.8207 -3.43844
209 1 7.0236 0.095268 40.0985 -2.97881
210 1 7.0236 13.082 37.8321 -3.44396
211 1 1.40472 0.095268 40.0985 -2.97881
212 1 1.40472 13.082 37.8321 -3.44396
213 1 2.80944 2.52829 40.11 -2.97213
214 1 2.80944 10.649 37.8207 -3.43844
215 1 7.0236 4.96133 40.1213 -2.97443
216 1 1.40472 4.96133 40.1213 -2.97443
217 1 5.61888 7.39435 40.1327 -2.97441
218 1 0 7.39435 40.1327 -2.97442
219 1 4.21416 4.96133 40.1213 -2.97442
220 1 2.80944 7.39435 40.1327 -2.97441
221 1 5.61888 9.03756 35.4859 -3.35104
222 1 0 9.03756 35.4859 -3.35105
223 1 7.0236 11.4706 35.4973 -3.35223
224 1 1.40472 11.4706 35.4973 -3.35223
225 1 4.21416 11.4706 35.4973 -3.35223
226 1 2.80944 9.03756 35.4859 -3.35104
227 1 2.80944 0.916869 37.7751 -3.4418
228 1 2.80944 13.9036 35.5087 -3.34154
229 1 0 0.916869 37.7751 -3.44181
230 1 0 13.9036 35.5087 -3.34155
231 1 5.61888 0.916869 37.7751 -3.4418
232 1 5.61888 13.9036 35.5087 -3.34154
233 1 7.0236 3.34989 37.7865 -3.43844
234 1 1.40472 3.34989 37.7865 -3.43843
235 1 4.21416 3.34989 37.7865 -3.43843
236 1 7.0236 1.73846 35.4518 -3.35208
237 1 1.40472 1.73846 35.4518 -3.35207
238 1 4.21416 1.73846 35.4518 -3.35207
239 1 7.0236 6.60452 35.4745 -3.35104
240 1 1.40472 6.60452 35.4745 -3.35104
241 1 5.61888 4.17149 35.4632 -3.35108
242 1 0 4.17149 35.4632 -3.35108
243 1 4.21416 6.60452 35.4745 -3.35104
244 1 2.80944 4.17149 35.4632 -3.35108
