ITEM: TIMESTEP
751
ITEM: NUMBER OF ATOMS
18
ITEM: BOX BOUNDS ff ff ff
0.0000000000000000e+00 1.8000000000000000e+01
0.0000000000000000e+00 1.8000000000000000e+01
0.0000000000000000e+00 1.8000000000000000e+01
ITEM: ATOMS id type x y z c_peatom
9 2 8.08399 7.72189 8.78343 -3.66422
2 1 9.58341 6.90851 8.05862 -5.52418
8 2 10.366 8.66254 7.95408 -4.25648
10 2 9.37886 7.2754 6.07706 -3.89072
1 1 10.4194 8.64189 6.02983 -3.98244
6 1 6.07086 9.66569 7.03479 -3.21477
3 1 8.5781 9.65946 8.20582 -6.31404
18 2 6.75331 10.5028 8.27834 -4.46458
17 2 9.66744 11.2606 8.03412 -3.48013
4 1 8.74186 7.69202 10.7539 -7.16161
14 2 8.64584 6.2069 11.6083 -2.73092
12 2 10.341 7.06379 9.89585 -3.4909
16 2 10.1935 8.64112 11.5612 -3.07978
13 2 12.6851 8.40901 10.3693 -2.65679
15 2 8.98907 9.8734 10.0405 -3.72472
7 1 9.86914 11.6007 9.80865 -5.17847
5 1 11.1226 9.00436 9.94913 -7.90847
11 2 11.5411 10.9 9.95949 -3.37253
