ITEM: TIMESTEP
452
ITEM: NUMBER OF ATOMS
16
ITEM: BOX BOUNDS ff ff ff
0.0000000000000000e+00 1.8000000000000000e+01
0.0000000000000000e+00 1.8000000000000000e+01
0.0000000000000000e+00 1.8000000000000000e+01
ITEM: ATOMS id type x y z c_peatom
10 2 8.32948 7.46708 5.65028 -2.80406
3 1 8.63557 8.79765 6.66488 -7.00614
8 2 9.0107 7.56496 8.0977 -3.52132
14 2 10.5334 8.77323 6.86983 -2.96736
2 1 10.6519 8.71936 8.8104 -8.08476
9 2 6.92212 9.07984 7.7651 -4.05885
1 1 7.41449 10.6718 8.41183 -3.60016
12 2 12.3208 9.20298 8.71453 -2.56148
7 2 8.62784 6.47176 10.1135 -3.28135
6 1 7.72582 8.05542 9.47035 -6.10076
15 2 8.29981 8.35787 11.388 -3.98715
5 1 9.94555 7.23116 11.2274 -5.9372
16 2 10.8514 7.00867 9.57688 -3.21619
11 2 8.82973 9.74524 9.25695 -4.53766
4 1 9.14354 10.0007 11.1535 -4.53257
13 2 10.7101 9.00943 10.8736 -3.83122
