ITEM: TIMESTEP
409
ITEM: NUMBER OF ATOMS
16
ITEM: BOX BOUNDS ff ff ff
0.0000000000000000e+00 1.8000000000000000e+01
0.0000000000000000e+00 1.8000000000000000e+01
0.0000000000000000e+00 1.8000000000000000e+01
ITEM: ATOMS id type x y z c_peatom 
2 1 7.11901 8.58278 8.45318 -5.37964 
7 2 8.55893 7.50761 7.76066 -3.45507 
11 2 8.07673 9.60184 6.94916 -4.03619 
3 1 7.95513 11.3049 7.54856 -3.93691 
10 2 9.3873 11.0532 8.65889 -4.33971 
1 1 9.87105 9.14844 7.9536 -6.68158 
13 2 9.29745 4.95023 9.41469 -2.55779 
5 1 8.83426 6.61324 9.58021 -8.18025 
9 2 6.94413 6.90124 9.28175 -3.15564 
12 2 8.74317 8.87371 9.597 -4.39263 
6 1 10.6214 8.72125 10.6499 -6.55071 
15 2 10.4904 7.49997 9.0079 -3.3511 
16 2 9.33562 7.38685 11.2481 -3.00484 
4 1 8.44964 10.6471 10.2794 -4.75482 
14 2 9.94707 10.3816 11.3103 -3.53531 
8 2 11.343 9.62833 9.12323 -3.14125 
