LAMMPS (30 Nov 2020)
  using 1 OpenMP thread(s) per MPI task
Reading data file ...
  orthogonal box = (0.0000000 0.0000000 0.0000000) to (8.4283000 14.598200 49.476269)
  1 by 1 by 2 MPI processor grid
  reading atoms ...
  381 atoms
  read_data CPU = 0.002 seconds
   PairComb3: polarization is off 
  element[1] = Al, z = 2.14332
  element[2] = O , z = 1.37179
144 atoms in group top
222 atoms in group bot
366 atoms in group both_grains
WARNING: Using 'neigh_modify every 1 delay 0 check yes' setting during minimization (../min.cpp:188)
Neighbor list info ...
  update every 1 steps, delay 0 steps, check yes
  max neighbors/atom: 2000, page size: 100000
  master list distance cutoff = 15
  ghost atom cutoff = 15
  binsize = 7.5, bins = 2 2 7
  1 neighbor lists, perpetual/occasional/extra = 1 0 0
  (1) pair comb3, perpetual
      attributes: full, newton on, ghost
      pair build: full/bin/ghost
      stencil: full/ghost/bin/3d
      bin: standard
Setting up cg style minimization ...
  Unit style    : metal
  Current step  : 0
Per MPI rank memory allocation (min/avg/max) = 21.36 | 21.55 | 21.75 Mbytes
Step Temp E_pair E_mol TotEng Press 
       0            0   -1398.9124            0   -1398.9124    51502.651 
       1            0   -1450.1271            0   -1450.1271    51510.684 
Loop time of 0.135362 on 2 procs for 1 steps with 381 atoms

98.6% CPU use with 2 MPI tasks x 1 OpenMP threads

Minimization stats:
  Stopping criterion = max force evaluations
  Energy initial, next-to-last, final = 
     -1398.91239271568  -1398.91239271568  -1450.12713725876
  Force two-norm initial, final = 370.90438 212.13353
  Force max component initial, final = 206.00321 119.90849
  Final line search alpha, max atom move = 0.00048542933 0.058207099
  Iterations, force evaluations = 1 1

MPI task timing breakdown:
Section |  min time  |  avg time  |  max time  |%varavg| %total
---------------------------------------------------------------
Pair    | 0.092494   | 0.11369    | 0.13489    |   6.3 | 83.99
Neigh   | 0          | 0          | 0          |   0.0 |  0.00
Comm    | 0.00025107 | 0.021439   | 0.042626   |  14.5 | 15.84
Output  | 0          | 0          | 0          |   0.0 |  0.00
Modify  | 4.9174e-06 | 5.6336e-06 | 6.3498e-06 |   0.0 |  0.00
Other   |            | 0.0002249  |            |       |  0.17

Nlocal:        190.500 ave         255 max         126 min
Histogram: 1 0 0 0 0 0 0 0 0 1
Nghost:        5767.50 ave        6045 max        5490 min
Histogram: 1 0 0 0 0 0 0 0 0 1
Neighs:         0.00000 ave           0 max           0 min
Histogram: 2 0 0 0 0 0 0 0 0 0
FullNghs:      193159.0 ave      289774 max       96544 min
Histogram: 1 0 0 0 0 0 0 0 0 1

Total # of neighbors = 386318
Ave neighs/atom = 1013.9580
Neighbor list builds = 0
Dangerous builds = 0
WARNING: Using 'neigh_modify every 1 delay 0 check yes' setting during minimization (../min.cpp:188)
Setting up cg style minimization ...
  Unit style    : metal
  Current step  : 1
Per MPI rank memory allocation (min/avg/max) = 21.48 | 21.68 | 21.87 Mbytes
Step Temp E_pair E_mol TotEng Press 
       1            0   -1450.1271            0   -1450.1271    51510.684 
      48            0   -1553.0727            0   -1553.0727    40658.946 
Loop time of 3.34025 on 2 procs for 47 steps with 381 atoms

98.5% CPU use with 2 MPI tasks x 1 OpenMP threads

Minimization stats:
  Stopping criterion = energy tolerance
  Energy initial, next-to-last, final = 
     -1450.12713725876  -1553.07164583422  -1553.07268955393
  Force two-norm initial, final = 212.13353 2.1979046
  Force max component initial, final = 119.90849 1.5661827
  Final line search alpha, max atom move = 0.080256784 0.12569679
  Iterations, force evaluations = 47 58

MPI task timing breakdown:
Section |  min time  |  avg time  |  max time  |%varavg| %total
---------------------------------------------------------------
Pair    | 2.1293     | 2.6743     | 3.2193     |  33.3 | 80.06
Neigh   | 0.099722   | 0.10422    | 0.10872    |   1.4 |  3.12
Comm    | 0.0068399  | 0.55608    | 1.1053     |  73.7 | 16.65
Output  | 0          | 0          | 0          |   0.0 |  0.00
Modify  | 0.00012524 | 0.00015108 | 0.00017692 |   0.0 |  0.00
Other   |            | 0.00552    |            |       |  0.17

Nlocal:        190.500 ave         255 max         126 min
Histogram: 1 0 0 0 0 0 0 0 0 1
Nghost:        5774.50 ave        6052 max        5497 min
Histogram: 1 0 0 0 0 0 0 0 0 1
Neighs:         0.00000 ave           0 max           0 min
Histogram: 2 0 0 0 0 0 0 0 0 0
FullNghs:      193534.0 ave      290851 max       96217 min
Histogram: 1 0 0 0 0 0 0 0 0 1

Total # of neighbors = 387068
Ave neighs/atom = 1015.9265
Neighbor list builds = 1
Dangerous builds = 0
Total wall time: 0:00:03
