ITEM: TIMESTEP
932
ITEM: NUMBER OF ATOMS
18
ITEM: BOX BOUNDS ff ff ff
0.0000000000000000e+00 1.8000000000000000e+01
0.0000000000000000e+00 1.8000000000000000e+01
0.0000000000000000e+00 1.8000000000000000e+01
ITEM: ATOMS id type x y z c_peatom 
15 2 8.54155 10.1487 5.80352 -3.0839 
10 2 8.26634 6.66301 8.71081 -3.56116 
13 2 8.49194 7.58399 6.1773 -3.3812 
1 1 9.55035 7.58119 7.76231 -5.65787 
2 1 7.50643 9.09738 6.58236 -5.85275 
8 2 8.53114 9.08416 8.35131 -3.97469 
9 2 10.353 11.0061 7.65906 -3.0141 
17 2 5.62972 8.9417 10.0395 -2.80381 
4 1 7.17424 8.26792 9.78172 -7.08743 
14 2 6.91585 6.55944 10.5564 -2.99697 
6 1 8.99054 6.46943 10.6516 -5.92433 
16 2 8.21925 8.17323 11.5289 -4.09986 
5 1 11.643 7.76575 10.0256 -4.94745 
11 2 10.4918 6.52552 9.25266 -3.8943 
12 2 10.5932 7.54528 11.5919 -4.34518 
3 1 10.0896 10.1939 9.10946 -5.87079 
7 1 9.7263 9.13515 11.6943 -3.90871 
18 2 11.8043 9.48597 9.17185 -3.4129 
