ITEM: TIMESTEP
239
ITEM: NUMBER OF ATOMS
15
ITEM: BOX BOUNDS ff ff ff
0.0000000000000000e+00 1.8000000000000000e+01
0.0000000000000000e+00 1.8000000000000000e+01
0.0000000000000000e+00 1.8000000000000000e+01
ITEM: ATOMS id type x y z c_peatom
8 2 8.69909 8.32898 8.39176 -3.91592
2 1 9.86272 8.86322 6.96839 -5.58807
9 2 10.863 7.25551 7.1623 -3.5977
3 1 12.2405 7.96449 8.13288 -4.98972
10 2 11.625 9.60416 7.46531 -4.07267
7 2 9.6248 10.6305 7.94823 -3.88279
14 2 8.83401 6.4636 11.2569 -3.27303
11 2 7.78259 8.36111 10.4963 -3.27654
5 1 9.72746 7.88479 10.1412 -7.0685
15 2 11.5855 8.64136 9.80555 -3.90017
1 1 8.19053 10.0294 9.09425 -5.31492
6 1 11.1111 10.426 9.20314 -5.4023
13 2 9.58793 9.9187 10.3224 -3.9772
4 1 8.10463 7.75041 12.302 -5.29437
12 2 9.73797 8.42036 12.0568 -3.41716
