LAMMPS (30 Nov 2020)
  using 1 OpenMP thread(s) per MPI task
Reading data file ...
  orthogonal box = (0.0000000 0.0000000 0.0000000) to (8.4283000 14.598200 49.476269)
  1 by 1 by 2 MPI processor grid
  reading atoms ...
  386 atoms
  read_data CPU = 0.003 seconds
   PairComb3: polarization is off 
  element[1] = Al, z = 2.14332
  element[2] = O , z = 1.37179
144 atoms in group top
222 atoms in group bot
366 atoms in group both_grains
WARNING: Using 'neigh_modify every 1 delay 0 check yes' setting during minimization (../min.cpp:188)
Neighbor list info ...
  update every 1 steps, delay 0 steps, check yes
  max neighbors/atom: 2000, page size: 100000
  master list distance cutoff = 15
  ghost atom cutoff = 15
  binsize = 7.5, bins = 2 2 7
  1 neighbor lists, perpetual/occasional/extra = 1 0 0
  (1) pair comb3, perpetual
      attributes: full, newton on, ghost
      pair build: full/bin/ghost
      stencil: full/ghost/bin/3d
      bin: standard
Setting up cg style minimization ...
  Unit style    : metal
  Current step  : 0
Per MPI rank memory allocation (min/avg/max) = 21.74 | 21.93 | 22.13 Mbytes
Step Temp E_pair E_mol TotEng Press 
       0            0   -1507.9414            0   -1507.9414    59481.308 
       1            0   -1514.9869            0   -1514.9869    55831.672 
Loop time of 0.131263 on 2 procs for 1 steps with 386 atoms

97.5% CPU use with 2 MPI tasks x 1 OpenMP threads

Minimization stats:
  Stopping criterion = max force evaluations
  Energy initial, next-to-last, final = 
       -1507.941384843    -1507.941384843     -1514.98687333
  Force two-norm initial, final = 32.291377 26.087326
  Force max component initial, final = 13.314253 10.281540
  Final line search alpha, max atom move = 0.0075107480 0.077222059
  Iterations, force evaluations = 1 1

MPI task timing breakdown:
Section |  min time  |  avg time  |  max time  |%varavg| %total
---------------------------------------------------------------
Pair    | 0.082583   | 0.10667    | 0.13075    |   7.4 | 81.26
Neigh   | 0          | 0          | 0          |   0.0 |  0.00
Comm    | 0.0002715  | 0.024348   | 0.048424   |  15.4 | 18.55
Output  | 0          | 0          | 0          |   0.0 |  0.00
Modify  | 5.9623e-06 | 6.3898e-06 | 6.8173e-06 |   0.0 |  0.00
Other   |            | 0.000244   |            |       |  0.19

Nlocal:        193.000 ave         260 max         126 min
Histogram: 1 0 0 0 0 0 0 0 0 1
Nghost:        5831.00 ave        6111 max        5551 min
Histogram: 1 0 0 0 0 0 0 0 0 1
Neighs:         0.00000 ave           0 max           0 min
Histogram: 2 0 0 0 0 0 0 0 0 0
FullNghs:      198913.0 ave      300202 max       97624 min
Histogram: 1 0 0 0 0 0 0 0 0 1

Total # of neighbors = 397826
Ave neighs/atom = 1030.6373
Neighbor list builds = 0
Dangerous builds = 0
WARNING: Using 'neigh_modify every 1 delay 0 check yes' setting during minimization (../min.cpp:188)
Setting up cg style minimization ...
  Unit style    : metal
  Current step  : 1
Per MPI rank memory allocation (min/avg/max) = 21.86 | 22.06 | 22.25 Mbytes
Step Temp E_pair E_mol TotEng Press 
       1            0   -1514.9869            0   -1514.9869    55831.672 
      89            0   -1581.7501            0   -1581.7501    41564.796 
Loop time of 6.81555 on 2 procs for 88 steps with 386 atoms

98.6% CPU use with 2 MPI tasks x 1 OpenMP threads

Minimization stats:
  Stopping criterion = energy tolerance
  Energy initial, next-to-last, final = 
        -1514.98687333  -1581.74885030148  -1581.75013808183
  Force two-norm initial, final = 26.087326 0.21868771
  Force max component initial, final = 10.281540 0.10632100
  Final line search alpha, max atom move = 0.84906585 0.090273533
  Iterations, force evaluations = 88 122

MPI task timing breakdown:
Section |  min time  |  avg time  |  max time  |%varavg| %total
---------------------------------------------------------------
Pair    | 4.333      | 5.4381     | 6.5431     |  47.4 | 79.79
Neigh   | 0.22961    | 0.24045    | 0.2513     |   2.2 |  3.53
Comm    | 0.013221   | 1.1287     | 2.2441     | 105.0 | 16.56
Output  | 0          | 0          | 0          |   0.0 |  0.00
Modify  | 0.0002513  | 0.00030973 | 0.00036816 |   0.0 |  0.00
Other   |            | 0.008069   |            |       |  0.12

Nlocal:        193.000 ave         260 max         126 min
Histogram: 1 0 0 0 0 0 0 0 0 1
Nghost:        5829.00 ave        6109 max        5549 min
Histogram: 1 0 0 0 0 0 0 0 0 1
Neighs:         0.00000 ave           0 max           0 min
Histogram: 2 0 0 0 0 0 0 0 0 0
FullNghs:      199073.0 ave      300582 max       97564 min
Histogram: 1 0 0 0 0 0 0 0 0 1

Total # of neighbors = 398146
Ave neighs/atom = 1031.4663
Neighbor list builds = 2
Dangerous builds = 0
Total wall time: 0:00:07
