ITEM: TIMESTEP
89
ITEM: NUMBER OF ATOMS
386
ITEM: BOX BOUNDS pp pp pp
0.0000000000000000e+00 8.4283000000000001e+00
0.0000000000000000e+00 1.4598200000000000e+01
0.0000000000000000e+00 4.9476269000000002e+01
ITEM: ATOMS id type x y z c_peatom
84 1 2.92401 12.1652 3.61953 -2.2941
85 1 7.13816 4.86606 3.61953 -2.29409
86 1 5.73344 7.2991 5.31004 -6.5982
87 1 7.13816 9.73214 3.61953 -2.29409
88 1 5.73344 12.1652 5.31004 -6.5982
89 1 7.13816 0 3.61953 -2.29408
90 1 5.73344 2.43304 5.31004 -6.5982
91 1 2.92401 7.2991 3.61953 -2.29408
92 1 1.51929 9.73212 5.31004 -6.59819
93 1 2.92401 2.43304 3.61953 -2.29408
94 1 1.51929 4.86606 5.31004 -6.5982
95 1 1.51929 0 5.31004 -6.59819
96 1 0.114574 7.2991 5.80124 -6.54405
97 1 4.32872 9.73212 5.80124 -6.54404
98 1 2.92401 7.2991 7.4917 -6.40207
99 1 0.114574 12.1652 5.80124 -6.54405
100 1 7.13816 9.73214 7.4917 -6.40206
101 1 4.32872 0 5.80124 -6.54405
102 1 2.92401 12.1652 7.4917 -6.40208
103 1 0.114574 2.43304 5.80124 -6.54404
104 1 7.13816 0 7.4917 -6.40207
105 1 4.32872 4.86606 5.80124 -6.54403
106 1 2.92401 2.43304 7.4917 -6.40207
107 1 7.13816 4.86606 7.4917 -6.40206
108 1 5.73344 12.1652 7.98285 -6.40205
111 1 5.73344 7.2991 7.98285 -6.40204
112 1 1.51929 9.73212 7.98285 -6.40204
115 1 5.73344 2.43304 7.98285 -6.40204
116 1 1.51929 4.86606 7.98285 -6.40204
118 1 1.51929 0 7.98285 -6.40204
120 1 4.32872 9.73212 3.12833 -3.27315
121 1 4.32872 4.86606 3.12833 -3.27316
122 1 0.114574 12.1652 3.12833 -3.27315
123 1 0.114574 2.43304 3.12833 -3.27315
124 1 0.114574 7.2991 3.12833 -3.27315
125 1 4.32872 0 3.12833 -3.27314
333 2 3.03858 10.477 4.46474 -3.32409
334 2 1.40472 12.91 4.46474 -3.32409
335 2 4.32872 13.1085 4.46474 -3.32408
336 2 7.25273 3.1779 4.46474 -3.32408
337 2 0.114574 5.80937 4.46474 -3.32409
338 2 5.61887 5.61093 4.46474 -3.32408
339 2 0.114574 10.6754 4.46474 -3.32409
340 2 5.61887 10.477 4.46474 -3.32408
341 2 7.25273 8.04396 4.46474 -3.32409
342 2 0.114574 0.943306 4.46474 -3.32409
343 2 5.61887 0.744873 4.46474 -3.32408
344 2 7.25273 12.91 4.46474 -3.32408
345 2 1.40472 8.04396 4.46474 -3.32407
346 2 4.32872 8.24241 4.46474 -3.32408
347 2 3.03858 5.61092 4.46474 -3.32409
348 2 1.40472 3.1779 4.46474 -3.32408
349 2 4.32872 3.37635 4.46474 -3.32409
350 2 3.03858 0.744859 4.46474 -3.32408
351 2 0.22914 8.98727 6.64644 -4.12705
352 2 7.02359 6.55424 6.64644 -4.12705
353 2 1.51929 6.35579 6.64644 -4.12705
354 2 5.73344 8.78883 6.64644 -4.12705
355 2 2.80944 8.98727 6.64644 -4.12704
356 2 4.44329 11.4203 6.64644 -4.12706
357 2 0.22914 13.8533 6.64644 -4.12706
358 2 7.02359 11.4203 6.64644 -4.12704
359 2 1.51929 11.2219 6.64644 -4.12706
360 2 4.44329 1.68816 6.64644 -4.12706
361 2 5.73344 13.6549 6.64644 -4.12705
362 2 2.80944 13.8533 6.64644 -4.12705
363 2 0.22914 4.1212 6.64644 -4.12705
364 2 1.51929 1.48973 6.64644 -4.12705
365 2 7.02359 1.68816 6.64644 -4.12705
366 2 2.80944 4.1212 6.64644 -4.12704
367 2 5.73344 3.92275 6.64644 -4.12704
368 2 4.44329 6.55424 6.64644 -4.12706
48 1 5.73344 2.43304 14.5279 -6.40125
49 1 4.32872 4.86606 16.2184 -6.35183
50 1 5.73344 12.1652 14.5279 -6.40126
51 1 5.73344 7.2991 14.5279 -6.40126
52 1 4.32872 9.73212 16.2184 -6.40172
53 1 1.51928 4.86606 14.5279 -6.40124
54 1 0.114574 2.43304 16.2184 -6.40368
55 1 1.51928 0 14.5279 -6.40125
56 1 0.114574 12.1652 16.2184 -6.33728
57 1 1.51928 9.73212 14.5279 -6.40124
58 1 0.114574 7.2991 16.2184 -6.31152
59 1 4.32872 0 16.2184 -6.3439
60 1 2.92401 12.1652 10.1646 -6.40196
61 1 2.92401 7.2991 10.1646 -6.40195
62 1 1.51929 9.73212 11.855 -6.4021
63 1 7.13816 4.86606 10.1646 -6.40194
64 1 5.73344 2.43304 11.855 -6.40212
65 1 7.13816 0 10.1646 -6.40195
66 1 5.73344 12.1652 11.855 -6.40212
67 1 7.13816 9.73214 10.1646 -6.40194
68 1 5.73344 7.2991 11.855 -6.40212
69 1 2.92401 2.43304 10.1646 -6.40195
70 1 1.51929 0 11.855 -6.40212
71 1 1.51929 4.86606 11.855 -6.4021
72 1 4.32872 0 12.3462 -6.40196
73 1 2.92401 2.43304 14.0367 -6.38416
74 1 7.13816 0 14.0367 -6.38415
75 1 0.114574 7.2991 12.3462 -6.40197
76 1 0.114574 2.43304 12.3462 -6.40196
77 1 7.13816 4.86606 14.0367 -6.38415
78 1 4.32872 4.86606 12.3462 -6.40196
79 1 2.92401 7.2991 14.0367 -6.38417
80 1 0.114574 12.1652 12.3462 -6.40197
81 1 4.32872 9.73212 12.3462 -6.40196
82 1 7.13816 9.73214 14.0367 -6.38415
83 1 2.92401 12.1652 14.0367 -6.38418
109 1 0.114574 12.1652 9.67335 -6.40208
110 1 4.32872 9.73212 9.67335 -6.40207
113 1 0.114574 7.2991 9.67335 -6.40207
114 1 4.32872 4.86606 9.67335 -6.40207
117 1 0.114574 2.43304 9.67335 -6.40207
119 1 4.32872 0 9.67335 -6.40207
279 2 5.84801 4.1212 15.3731 -4.12743
280 2 7.13816 1.48973 15.3731 -4.12743
281 2 4.21415 1.68818 15.3731 -4.12744
282 2 5.84801 13.8533 15.3731 -4.12743
283 2 7.13816 11.2219 15.3731 -4.12743
284 2 4.21415 11.4203 15.3731 -4.12745
285 2 5.84801 8.98727 15.3731 -4.12743
286 2 7.13816 6.35579 15.3731 -4.12744
287 2 4.21415 6.55424 15.3731 -4.12745
288 2 0 4.1212 15.3731 -4.12742
289 2 2.92401 3.92275 15.3731 -4.12744
290 2 1.63386 6.55424 15.3731 -4.12744
291 2 1.63386 1.68816 15.3731 -4.12743
292 2 0 13.8533 15.3731 -4.12744
293 2 2.92401 13.6549 15.3731 -4.12745
294 2 0 8.98727 15.3731 -4.12744
295 2 2.92401 8.78882 15.3731 -4.12744
296 2 1.63386 11.4203 15.3731 -4.12744
297 2 3.03858 13.8533 11.0098 -4.12708
298 2 1.40472 11.4203 11.0098 -4.12708
299 2 4.32872 11.2219 11.0098 -4.12709
300 2 3.03858 8.98727 11.0098 -4.12707
301 2 1.40472 6.55424 11.0098 -4.12709
302 2 4.32872 6.35579 11.0098 -4.12709
303 2 5.61887 4.1212 11.0098 -4.12707
304 2 0.114574 3.92275 11.0098 -4.12708
305 2 7.25273 6.55424 11.0098 -4.12709
306 2 0.114574 13.6549 11.0098 -4.12709
307 2 5.61887 13.8533 11.0098 -4.12707
308 2 7.25273 1.68818 11.0098 -4.12709
309 2 7.25273 11.4203 11.0098 -4.12707
310 2 5.61887 8.98727 11.0098 -4.12708
311 2 0.114574 8.78882 11.0098 -4.12709
312 2 3.03858 4.1212 11.0098 -4.12707
313 2 4.32872 1.48973 11.0098 -4.12708
314 2 1.40472 1.68816 11.0098 -4.12708
315 2 5.73344 0.943306 13.1914 -4.12709
316 2 2.80944 0.744873 13.1914 -4.12708
317 2 4.44329 12.91 13.1914 -4.1271
318 2 0.22914 5.61093 13.1914 -4.12709
319 2 7.02359 8.04396 13.1914 -4.12709
320 2 1.51929 8.24241 13.1914 -4.12708
321 2 0.22914 0.744873 13.1914 -4.12709
322 2 7.02359 3.1779 13.1914 -4.12708
323 2 1.51929 3.37635 13.1914 -4.12708
324 2 4.44329 3.1779 13.1914 -4.12709
325 2 5.73344 5.80937 13.1914 -4.1271
326 2 2.80944 5.61093 13.1914 -4.12709
327 2 0.22914 10.477 13.1914 -4.12709
328 2 7.02359 12.91 13.1914 -4.12709
329 2 1.51929 13.1085 13.1914 -4.12709
330 2 4.44329 8.04396 13.1914 -4.12709
331 2 5.73344 10.6754 13.1914 -4.12709
332 2 2.80944 10.477 13.1914 -4.12709
369 2 5.84801 10.477 8.8281 -4.12712
370 2 7.13816 13.1085 8.8281 -4.12713
371 2 0 10.477 8.8281 -4.12713
372 2 1.63386 12.91 8.8281 -4.12713
373 2 4.21415 8.04396 8.8281 -4.12713
374 2 5.84801 5.61093 8.8281 -4.12712
375 2 7.13816 8.24241 8.8281 -4.12713
376 2 1.63386 8.04396 8.8281 -4.12711
377 2 2.92401 10.6754 8.8281 -4.12713
378 2 4.21415 3.1779 8.8281 -4.12712
379 2 5.84801 0.744873 8.8281 -4.12712
380 2 7.13816 3.37635 8.8281 -4.12712
381 2 1.63386 3.1779 8.8281 -4.12711
382 2 2.92401 5.80937 8.8281 -4.12713
383 2 2.92401 0.943306 8.8281 -4.12713
384 2 4.21415 12.91 8.8281 -4.12713
385 2 0 0.744859 8.8281 -4.12713
386 2 0 5.61092 8.8281 -4.12714
13 1 7.0236 8.27947 23.8462 -3.05337
14 1 1.40472 8.27947 23.8462 -3.24015
15 1 5.61888 10.7125 23.8576 -2.98167
16 1 0 10.7125 23.8576 -3.25666
17 1 4.21416 8.27947 23.8462 -3.14488
18 1 2.80944 10.7125 23.8576 -3.05569
20 1 4.21416 13.1455 23.869 -3.1835
22 1 7.0236 13.1455 23.869 -3.11726
24 1 1.40472 13.1455 23.869 -3.18938
28 1 0.114574 2.43304 18.5106 -3.17911
29 1 0.622676 3.03314 21.1648 -1.80303
30 1 0.114574 7.2991 18.5106 -7.31257
31 1 1.22185 7.9049 21.2841 -3.6929
32 1 7.95937 9.95034 21.4428 -2.80392
33 1 0.114574 12.1652 18.5106 -4.39635
34 1 8.16694 12.5704 21.3556 -2.72237
35 1 7.13816 4.86606 16.7095 -6.55378
36 1 7.13816 9.73214 16.7095 -6.49352
37 1 4.32872 4.86606 18.5106 -5.39799
38 1 3.6832 7.41603 21.5012 -2.46953
39 1 4.32872 0 18.5106 -5.58544
40 1 4.47158 14.1449 21.1516 -2.51029
41 1 3.52765 2.8163 21.262 -2.51278
42 1 4.32872 9.73212 18.5106 -3.51725
43 1 2.16026 11.6746 21.6197 -4.24808
44 1 2.92401 12.1652 16.7095 -6.4675
45 1 2.92401 2.43304 16.7095 -6.49493
46 1 2.92401 7.2991 16.7095 -6.43361
47 1 7.13816 0 16.7095 -6.55638
126 1 2.92401 2.43304 19.0018 -5.47609
127 1 7.13816 4.86606 19.0018 -3.81782
128 1 2.92401 12.1652 19.0018 -5.08156
129 1 7.13816 9.73214 19.0018 -5.12607
130 1 2.92401 7.2991 19.0018 -6.45282
131 1 7.13816 0 19.0018 -3.85038
132 1 2.80944 0.980371 23.812 -3.1042
133 1 5.61888 0.980371 23.812 -3.05363
134 1 0 0.980371 23.812 -3.07502
135 1 7.0236 3.41341 23.8235 -3.08927
136 1 1.40472 3.41341 23.8235 -3.3074
137 1 5.61888 5.84643 23.8348 -3.03353
138 1 0 5.84643 23.8348 -2.9922
139 1 4.21416 3.41341 23.8235 -3.17336
140 1 2.80944 5.84643 23.8348 -3.08491
249 2 3.03888 4.14446 19.6976 -2.63336
250 2 1.40472 3.1779 17.5548 -3.44677
251 2 7.25273 3.1779 17.5548 -3.29628
252 2 0.114574 0.943306 17.5548 -3.29246
253 2 1.38953 6.58261 19.7991 -3.05588
254 2 2.74456 8.74809 20.0283 -2.61519
255 2 0.114574 5.80937 17.5548 -3.8402
256 2 1.40472 8.04397 17.5548 -4.12969
257 2 7.25273 8.04397 17.5548 -3.93472
258 2 0.327948 8.97656 19.7376 -3.52074
259 2 7.4893 11.3413 19.8728 -2.91017
260 2 1.33066 12.518 20.0664 -2.86554
261 2 1.40472 12.91 17.5548 -3.72309
262 2 7.25273 12.91 17.5548 -3.39567
263 2 0.114574 10.6754 17.5548 -3.6384
264 2 4.62973 1.90919 19.6597 -2.4216
265 2 7.11618 6.65594 19.5974 -2.2861
266 2 4.32872 3.37635 17.5548 -3.98138
267 2 5.61887 5.61093 17.5548 -3.73181
268 2 3.03858 5.61093 17.5548 -3.93825
269 2 3.86634 12.2551 20.6383 -2.25452
270 2 5.6291 13.669 19.5736 -2.67353
271 2 4.32872 13.1085 17.5548 -3.50351
272 2 3.03858 0.744873 17.5548 -3.74261
273 2 5.61887 0.744873 17.5548 -3.82135
274 2 4.35699 6.54364 19.8157 -2.4469
275 2 4.32872 8.24241 17.5548 -3.69671
276 2 5.61887 10.477 17.5548 -3.51758
277 2 3.03858 10.477 17.5548 -3.31202
278 2 2.19339 10.6821 19.9667 -2.22382
1 1 7.0236 5.02485 26.1582 -3.41737
2 1 1.40472 5.02485 26.1582 -3.40419
3 1 5.61888 7.45787 26.1696 -3.41006
4 1 0 7.45787 26.1696 -3.4098
5 1 4.21416 5.02485 26.1582 -3.41354
6 1 2.80944 7.45787 26.1696 -3.39608
7 1 7.0236 9.89091 26.181 -3.40308
8 1 1.40472 9.89091 26.181 -3.37169
9 1 5.61888 12.3239 26.1924 -3.40466
10 1 0 12.3239 26.1924 -3.39664
11 1 4.21416 9.89091 26.181 -3.3912
12 1 2.80944 12.3239 26.1924 -3.39395
19 1 4.21416 0.158785 26.1354 -3.4091
21 1 7.0236 0.158785 26.1354 -3.40268
23 1 1.40472 0.158785 26.1354 -3.38537
25 1 5.61888 2.59181 26.1468 -3.40655
26 1 0 2.59181 26.1468 -3.42221
27 1 2.80944 2.59181 26.1468 -3.40648
141 1 5.61888 5.81468 30.8164 -3.35104
142 1 0 5.81468 30.8164 -3.35104
143 1 7.0236 8.24771 30.8277 -3.35103
144 1 1.40472 8.24771 30.8277 -3.35103
145 1 4.21416 8.24771 30.8277 -3.35103
146 1 2.80944 5.81468 30.8164 -3.35104
147 1 7.0236 1.77021 28.4702 -3.35207
148 1 1.40472 1.77021 28.4702 -3.35207
149 1 4.21416 1.77021 28.4702 -3.35207
150 1 7.0236 6.63627 28.493 -3.35105
151 1 1.40472 6.63627 28.493 -3.35104
152 1 5.61888 4.20324 28.4816 -3.35108
153 1 0 4.20324 28.4816 -3.35108
154 1 4.21416 6.63627 28.493 -3.35104
155 1 2.80944 4.20324 28.4816 -3.35108
156 1 5.61888 9.06931 28.5044 -3.35104
157 1 0 9.06931 28.5044 -3.35104
158 1 7.0236 11.5023 28.5158 -3.35223
159 1 1.40472 11.5023 28.5158 -3.35223
160 1 4.21416 11.5023 28.5158 -3.35223
161 1 2.80944 9.06931 28.5044 -3.35104
162 1 2.80944 0.94862 30.7936 -3.3559
163 1 2.80944 13.9354 28.5271 -3.34153
164 1 0 0.94862 30.7936 -3.3559
165 1 0 13.9354 28.5271 -3.34154
166 1 5.61888 0.94862 30.7936 -3.3559
167 1 5.61888 13.9354 28.5271 -3.34153
168 1 7.0236 3.38164 30.805 -3.34972
169 1 1.40472 3.38164 30.805 -3.34972
170 1 4.21416 3.38164 30.805 -3.34972
181 1 4.21416 13.1138 30.8505 -3.35589
182 1 5.61888 10.6807 30.8392 -3.34972
183 1 0 10.6807 30.8392 -3.34973
185 1 7.0236 13.1138 30.8505 -3.3559
187 1 1.40472 13.1138 30.8505 -3.35589
188 1 2.80944 10.6807 30.8392 -3.34972
171 1 5.61888 7.42612 33.1512 -3.35104
172 1 0 7.42612 33.1512 -3.35104
173 1 7.0236 9.85914 33.1626 -3.35108
174 1 1.40472 9.85914 33.1626 -3.35108
175 1 4.21416 9.85914 33.1626 -3.35108
176 1 2.80944 7.42612 33.1512 -3.35104
177 1 5.61888 12.2922 33.1739 -3.35206
178 1 0 12.2922 33.1739 -3.35206
179 1 2.80944 12.2922 33.1739 -3.35206
180 1 4.21416 0.127019 33.117 -3.34154
184 1 7.0236 0.127019 33.117 -3.34154
186 1 1.40472 0.127019 33.117 -3.34154
189 1 5.61888 2.56006 33.1284 -3.35222
190 1 0 2.56006 33.1284 -3.35222
191 1 7.0236 4.99308 33.1397 -3.35105
192 1 1.40472 4.99308 33.1397 -3.35104
193 1 4.21416 4.99308 33.1397 -3.35104
194 1 2.80944 2.56006 33.1284 -3.35222
195 1 5.61888 12.2604 40.1555 -2.97112
196 1 0 12.2604 40.1555 -2.97112
197 1 2.80944 12.2604 40.1555 -2.97111
198 1 7.0236 9.82739 40.1441 -2.97446
199 1 1.40472 9.82739 40.1441 -2.97446
200 1 4.21416 9.82739 40.1441 -2.97446
201 1 5.61888 5.78293 37.7979 -3.43976
202 1 0 5.78293 37.7979 -3.43976
203 1 7.0236 8.21595 37.8093 -3.43975
204 1 1.40472 8.21595 37.8093 -3.43975
205 1 4.21416 8.21595 37.8093 -3.43975
206 1 2.80944 5.78293 37.7979 -3.43976
207 1 4.21416 0.095268 40.0985 -2.9788
208 1 4.21416 13.082 37.8321 -3.44396
209 1 5.61888 2.52829 40.11 -2.97213
210 1 0 2.52829 40.11 -2.97213
211 1 5.61888 10.649 37.8207 -3.43844
212 1 0 10.649 37.8207 -3.43844
213 1 7.0236 0.095268 40.0985 -2.97881
214 1 7.0236 13.082 37.8321 -3.44396
215 1 1.40472 0.095268 40.0985 -2.97881
216 1 1.40472 13.082 37.8321 -3.44396
217 1 2.80944 2.52829 40.11 -2.97213
218 1 2.80944 10.649 37.8207 -3.43844
219 1 7.0236 4.96133 40.1213 -2.97443
220 1 1.40472 4.96133 40.1213 -2.97443
221 1 5.61888 7.39435 40.1327 -2.97441
222 1 0 7.39435 40.1327 -2.97442
223 1 4.21416 4.96133 40.1213 -2.97442
224 1 2.80944 7.39435 40.1327 -2.97441
225 1 5.61888 9.03756 35.4859 -3.35104
226 1 0 9.03756 35.4859 -3.35105
227 1 7.0236 11.4706 35.4973 -3.35223
228 1 1.40472 11.4706 35.4973 -3.35223
229 1 4.21416 11.4706 35.4973 -3.35223
230 1 2.80944 9.03756 35.4859 -3.35104
231 1 2.80944 0.916869 37.7751 -3.4418
232 1 2.80944 13.9036 35.5087 -3.34154
233 1 0 0.916869 37.7751 -3.44181
234 1 0 13.9036 35.5087 -3.34155
235 1 5.61888 0.916869 37.7751 -3.4418
236 1 5.61888 13.9036 35.5087 -3.34154
237 1 7.0236 3.34989 37.7865 -3.43844
238 1 1.40472 3.34989 37.7865 -3.43843
239 1 4.21416 3.34989 37.7865 -3.43843
240 1 7.0236 1.73846 35.4518 -3.35208
241 1 1.40472 1.73846 35.4518 -3.35207
242 1 4.21416 1.73846 35.4518 -3.35207
243 1 7.0236 6.60452 35.4745 -3.35104
244 1 1.40472 6.60452 35.4745 -3.35104
245 1 5.61888 4.17149 35.4632 -3.35108
246 1 0 4.17149 35.4632 -3.35108
247 1 4.21416 6.60452 35.4745 -3.35104
248 1 2.80944 4.17149 35.4632 -3.35108
