ITEM: TIMESTEP
1026
ITEM: NUMBER OF ATOMS
18
ITEM: BOX BOUNDS ff ff ff
0.0000000000000000e+00 1.8000000000000000e+01
0.0000000000000000e+00 1.8000000000000000e+01
0.0000000000000000e+00 1.8000000000000000e+01
ITEM: ATOMS id type x y z c_peatom
7 1 7.25762 7.23458 7.44462 -5.11768
8 2 8.93593 6.85385 8.47973 -4.32438
15 2 6.95575 8.66527 8.49652 -3.32824
17 2 8.36421 8.14016 6.32518 -3.58587
1 1 10.0482 7.5923 7.09872 -5.27314
16 2 11.5803 6.89514 8.44344 -4.14245
12 2 8.96763 10.66 6.42498 -3.194
4 1 9.73085 11.0167 7.85442 -5.53224
10 2 10.2203 9.11212 8.25225 -4.37853
2 1 8.61105 8.60924 9.61632 -8.59753
18 2 7.57698 7.71817 10.6931 -2.57334
3 1 10.351 6.1328 9.65522 -4.52727
14 2 10.3615 7.79833 10.5391 -4.07909
5 1 11.6659 8.54468 9.38152 -4.582
9 2 6.87705 10.8895 11.2509 -2.97505
13 2 8.16746 10.561 8.96925 -3.53274
6 1 8.42166 11.2989 10.7376 -6.13597
11 2 9.15056 9.67835 11.1872 -3.14125
