ITEM: TIMESTEP
244
ITEM: NUMBER OF ATOMS
16
ITEM: BOX BOUNDS ff ff ff
0.0000000000000000e+00 1.8000000000000000e+01
0.0000000000000000e+00 1.8000000000000000e+01
0.0000000000000000e+00 1.8000000000000000e+01
ITEM: ATOMS id type x y z c_peatom
1 1 7.04275 8.67573 7.61566 -4.64235
8 2 8.03186 7.10739 7.92691 -4.18632
9 2 8.31006 8.75952 6.12998 -4.56315
2 1 9.71795 7.78254 7.09812 -5.07339
3 1 9.02177 10.4296 6.30322 -3.88678
10 2 10.3024 9.6947 7.35041 -4.2598
4 1 8.29488 7.4307 9.85037 -5.91602
6 1 10.8965 8.0264 10.8421 -5.32171
11 2 9.94738 8.14072 9.07677 -4.27428
14 2 9.79765 6.53176 10.7123 -3.3147
15 2 9.27789 8.986 11.1075 -3.81054
12 2 7.61474 9.24235 9.36064 -3.96787
5 1 9.37128 10.0551 9.12087 -6.64748
13 2 9.19507 11.5161 10.4731 -3.53745
7 1 10.2277 10.7005 11.6528 -4.83153
16 2 11.1325 9.96929 10.1749 -3.73058
