ITEM: TIMESTEP
59
ITEM: NUMBER OF ATOMS
384
ITEM: BOX BOUNDS pp pp pp
0.0000000000000000e+00 8.4283000000000001e+00
0.0000000000000000e+00 1.4598200000000000e+01
0.0000000000000000e+00 4.9476269000000002e+01
ITEM: ATOMS id type x y z c_peatom
63 1 2.92401 12.1652 3.61953 -2.2941
64 1 7.13816 4.86606 3.61953 -2.29409
65 1 5.73344 7.2991 5.31004 -6.5982
66 1 7.13816 9.73214 3.61953 -2.29409
67 1 5.73344 12.1652 5.31004 -6.5982
68 1 7.13816 0 3.61953 -2.29408
69 1 5.73344 2.43304 5.31004 -6.5982
70 1 2.92401 7.2991 3.61953 -2.29408
71 1 1.51929 9.73212 5.31004 -6.59819
72 1 2.92401 2.43304 3.61953 -2.29408
73 1 1.51929 4.86606 5.31004 -6.5982
74 1 1.51929 0 5.31004 -6.59819
75 1 0.114574 7.2991 5.80124 -6.54405
76 1 4.32872 9.73212 5.80124 -6.54404
77 1 2.92401 7.2991 7.4917 -6.40207
78 1 0.114574 12.1652 5.80124 -6.54405
79 1 7.13816 9.73214 7.4917 -6.40206
80 1 4.32872 0 5.80124 -6.54405
81 1 2.92401 12.1652 7.4917 -6.40208
82 1 0.114574 2.43304 5.80124 -6.54404
83 1 7.13816 0 7.4917 -6.40207
84 1 4.32872 4.86606 5.80124 -6.54403
85 1 2.92401 2.43304 7.4917 -6.40207
86 1 7.13816 4.86606 7.4917 -6.40206
87 1 5.73344 12.1652 7.98285 -6.40205
90 1 5.73344 7.2991 7.98285 -6.40204
91 1 1.51929 9.73212 7.98285 -6.40204
94 1 5.73344 2.43304 7.98285 -6.40204
95 1 1.51929 4.86606 7.98285 -6.40204
97 1 1.51929 0 7.98285 -6.40204
99 1 4.32872 9.73212 3.12833 -3.27315
100 1 4.32872 4.86606 3.12833 -3.27316
101 1 0.114574 12.1652 3.12833 -3.27315
102 1 0.114574 2.43304 3.12833 -3.27315
103 1 0.114574 7.2991 3.12833 -3.27315
104 1 4.32872 0 3.12833 -3.27314
331 2 3.03858 10.477 4.46474 -3.32409
332 2 1.40472 12.91 4.46474 -3.32409
333 2 4.32872 13.1085 4.46474 -3.32408
334 2 7.25273 3.1779 4.46474 -3.32408
335 2 0.114574 5.80937 4.46474 -3.32409
336 2 5.61887 5.61093 4.46474 -3.32408
337 2 0.114574 10.6754 4.46474 -3.32409
338 2 5.61887 10.477 4.46474 -3.32408
339 2 7.25273 8.04396 4.46474 -3.32409
340 2 0.114574 0.943306 4.46474 -3.32409
341 2 5.61887 0.744873 4.46474 -3.32408
342 2 7.25273 12.91 4.46474 -3.32408
343 2 1.40472 8.04396 4.46474 -3.32407
344 2 4.32872 8.24241 4.46474 -3.32408
345 2 3.03858 5.61092 4.46474 -3.32409
346 2 1.40472 3.1779 4.46474 -3.32408
347 2 4.32872 3.37635 4.46474 -3.32409
348 2 3.03858 0.744859 4.46474 -3.32408
349 2 0.22914 8.98727 6.64644 -4.12705
350 2 7.02359 6.55424 6.64644 -4.12705
351 2 1.51929 6.35579 6.64644 -4.12705
352 2 5.73344 8.78883 6.64644 -4.12705
353 2 2.80944 8.98727 6.64644 -4.12704
354 2 4.44329 11.4203 6.64644 -4.12706
355 2 0.22914 13.8533 6.64644 -4.12706
356 2 7.02359 11.4203 6.64644 -4.12704
357 2 1.51929 11.2219 6.64644 -4.12706
358 2 4.44329 1.68816 6.64644 -4.12706
359 2 5.73344 13.6549 6.64644 -4.12705
360 2 2.80944 13.8533 6.64644 -4.12705
361 2 0.22914 4.1212 6.64644 -4.12705
362 2 1.51929 1.48973 6.64644 -4.12705
363 2 7.02359 1.68816 6.64644 -4.12705
364 2 2.80944 4.1212 6.64644 -4.12704
365 2 5.73344 3.92275 6.64644 -4.12704
366 2 4.44329 6.55424 6.64644 -4.12706
27 1 5.73344 2.43304 14.5279 -6.40125
28 1 4.32872 4.86606 16.2184 -6.37196
29 1 5.73344 12.1652 14.5279 -6.40126
30 1 5.73344 7.2991 14.5279 -6.40126
31 1 4.32872 9.73212 16.2184 -6.42013
32 1 1.51928 4.86606 14.5279 -6.40124
33 1 0.114574 2.43304 16.2184 -6.3612
34 1 1.51928 0 14.5279 -6.40125
35 1 0.114574 12.1652 16.2184 -6.32636
36 1 1.51928 9.73212 14.5279 -6.40124
37 1 0.114574 7.2991 16.2184 -6.36417
38 1 4.32872 0 16.2184 -6.29891
39 1 2.92401 12.1652 10.1646 -6.40196
40 1 2.92401 7.2991 10.1646 -6.40195
41 1 1.51929 9.73212 11.855 -6.4021
42 1 7.13816 4.86606 10.1646 -6.40194
43 1 5.73344 2.43304 11.855 -6.40212
44 1 7.13816 0 10.1646 -6.40195
45 1 5.73344 12.1652 11.855 -6.40212
46 1 7.13816 9.73214 10.1646 -6.40194
47 1 5.73344 7.2991 11.855 -6.40212
48 1 2.92401 2.43304 10.1646 -6.40195
49 1 1.51929 0 11.855 -6.40212
50 1 1.51929 4.86606 11.855 -6.4021
51 1 4.32872 0 12.3462 -6.40196
52 1 2.92401 2.43304 14.0367 -6.38416
53 1 7.13816 0 14.0367 -6.38415
54 1 0.114574 7.2991 12.3462 -6.40197
55 1 0.114574 2.43304 12.3462 -6.40196
56 1 7.13816 4.86606 14.0367 -6.38415
57 1 4.32872 4.86606 12.3462 -6.40196
58 1 2.92401 7.2991 14.0367 -6.38417
59 1 0.114574 12.1652 12.3462 -6.40197
60 1 4.32872 9.73212 12.3462 -6.40196
61 1 7.13816 9.73214 14.0367 -6.38415
62 1 2.92401 12.1652 14.0367 -6.38418
88 1 0.114574 12.1652 9.67335 -6.40208
89 1 4.32872 9.73212 9.67335 -6.40207
92 1 0.114574 7.2991 9.67335 -6.40207
93 1 4.32872 4.86606 9.67335 -6.40207
96 1 0.114574 2.43304 9.67335 -6.40207
98 1 4.32872 0 9.67335 -6.40207
277 2 5.84801 4.1212 15.3731 -4.12743
278 2 7.13816 1.48973 15.3731 -4.12743
279 2 4.21415 1.68818 15.3731 -4.12744
280 2 5.84801 13.8533 15.3731 -4.12743
281 2 7.13816 11.2219 15.3731 -4.12743
282 2 4.21415 11.4203 15.3731 -4.12745
283 2 5.84801 8.98727 15.3731 -4.12743
284 2 7.13816 6.35579 15.3731 -4.12744
285 2 4.21415 6.55424 15.3731 -4.12745
286 2 0 4.1212 15.3731 -4.12742
287 2 2.92401 3.92275 15.3731 -4.12744
288 2 1.63386 6.55424 15.3731 -4.12744
289 2 1.63386 1.68816 15.3731 -4.12743
290 2 0 13.8533 15.3731 -4.12744
291 2 2.92401 13.6549 15.3731 -4.12745
292 2 0 8.98727 15.3731 -4.12744
293 2 2.92401 8.78882 15.3731 -4.12744
294 2 1.63386 11.4203 15.3731 -4.12744
295 2 3.03858 13.8533 11.0098 -4.12708
296 2 1.40472 11.4203 11.0098 -4.12708
297 2 4.32872 11.2219 11.0098 -4.12709
298 2 3.03858 8.98727 11.0098 -4.12707
299 2 1.40472 6.55424 11.0098 -4.12709
300 2 4.32872 6.35579 11.0098 -4.12709
301 2 5.61887 4.1212 11.0098 -4.12707
302 2 0.114574 3.92275 11.0098 -4.12708
303 2 7.25273 6.55424 11.0098 -4.12709
304 2 0.114574 13.6549 11.0098 -4.12709
305 2 5.61887 13.8533 11.0098 -4.12707
306 2 7.25273 1.68818 11.0098 -4.12709
307 2 7.25273 11.4203 11.0098 -4.12707
308 2 5.61887 8.98727 11.0098 -4.12708
309 2 0.114574 8.78882 11.0098 -4.12709
310 2 3.03858 4.1212 11.0098 -4.12707
311 2 4.32872 1.48973 11.0098 -4.12708
312 2 1.40472 1.68816 11.0098 -4.12708
313 2 5.73344 0.943306 13.1914 -4.12709
314 2 2.80944 0.744873 13.1914 -4.12708
315 2 4.44329 12.91 13.1914 -4.1271
316 2 0.22914 5.61093 13.1914 -4.12709
317 2 7.02359 8.04396 13.1914 -4.12709
318 2 1.51929 8.24241 13.1914 -4.12708
319 2 0.22914 0.744873 13.1914 -4.12709
320 2 7.02359 3.1779 13.1914 -4.12708
321 2 1.51929 3.37635 13.1914 -4.12708
322 2 4.44329 3.1779 13.1914 -4.12709
323 2 5.73344 5.80937 13.1914 -4.1271
324 2 2.80944 5.61093 13.1914 -4.12709
325 2 0.22914 10.477 13.1914 -4.12709
326 2 7.02359 12.91 13.1914 -4.12709
327 2 1.51929 13.1085 13.1914 -4.12709
328 2 4.44329 8.04396 13.1914 -4.12709
329 2 5.73344 10.6754 13.1914 -4.12709
330 2 2.80944 10.477 13.1914 -4.12709
367 2 5.84801 10.477 8.8281 -4.12712
368 2 7.13816 13.1085 8.8281 -4.12713
369 2 0 10.477 8.8281 -4.12713
370 2 1.63386 12.91 8.8281 -4.12713
371 2 4.21415 8.04396 8.8281 -4.12713
372 2 5.84801 5.61093 8.8281 -4.12712
373 2 7.13816 8.24241 8.8281 -4.12713
374 2 1.63386 8.04396 8.8281 -4.12711
375 2 2.92401 10.6754 8.8281 -4.12713
376 2 4.21415 3.1779 8.8281 -4.12712
377 2 5.84801 0.744873 8.8281 -4.12712
378 2 7.13816 3.37635 8.8281 -4.12712
379 2 1.63386 3.1779 8.8281 -4.12711
380 2 2.92401 5.80937 8.8281 -4.12713
381 2 2.92401 0.943306 8.8281 -4.12713
382 2 4.21415 12.91 8.8281 -4.12713
383 2 0 0.744859 8.8281 -4.12713
384 2 0 5.61092 8.8281 -4.12714
1 1 2.92517 7.15873 21.5925 -2.23981
2 1 7.80711 9.59423 21.4689 -2.28044
3 1 7.07706 4.48511 21.3383 -2.7033
4 1 4.39441 4.82631 20.9657 -2.19036
5 1 7.00217 -0.695871 21.391 -3.00965
6 1 0.193977 7.30778 20.973 -2.37756
7 1 0.107687 2.35688 20.9909 -2.0213
8 1 0.266417 11.9992 21.1348 -2.75465
9 1 7.13816 4.86606 19.0018 -5.48636
10 1 2.92401 12.1652 19.0018 -5.17595
11 1 2.92401 2.43304 19.0018 -3.8548
12 1 2.92401 7.2991 19.0018 -2.93321
13 1 7.13816 0 19.0018 -5.50414
14 1 7.13816 9.73214 19.0018 -4.09076
15 1 4.32872 4.86606 18.5106 -4.20673
16 1 2.92401 7.2991 16.7095 -6.60717
17 1 4.32872 9.73212 18.5106 -2.95294
18 1 2.92401 12.1652 16.7095 -6.47824
19 1 0.114574 12.1652 18.5106 -5.5335
20 1 0.114574 7.2991 18.5106 -4.32664
21 1 7.13816 9.73214 16.7095 -6.54915
22 1 0.114574 2.43304 18.5106 -4.14203
23 1 7.13816 4.86606 16.7095 -6.49493
24 1 4.32872 0 18.5106 -7.53504
25 1 2.92401 2.43304 16.7095 -6.53755
26 1 7.13816 0 16.7095 -6.42904
117 1 7.0236 8.27947 23.8462 -3.21129
118 1 1.40472 8.27947 23.8462 -3.33595
119 1 5.61888 10.7125 23.8576 -3.02741
120 1 0 10.7125 23.8576 -3.28001
121 1 4.21416 8.27947 23.8462 -3.18518
122 1 2.80944 10.7125 23.8576 -2.92524
124 1 4.21416 13.1455 23.869 -2.95287
126 1 7.0236 13.1455 23.869 -3.20814
128 1 1.40472 13.1455 23.869 -3.06273
132 1 5.61888 0.980371 23.812 -3.03958
133 1 0 0.980371 23.812 -3.18031
134 1 2.80944 0.980371 23.812 -2.9521
135 1 7.0236 3.41341 23.8235 -3.24201
136 1 1.40472 3.41341 23.8235 -3.04936
137 1 5.61888 5.84643 23.8348 -3.14129
138 1 0 5.84643 23.8348 -3.16583
139 1 4.21416 3.41341 23.8235 -3.08245
140 1 2.80944 5.84643 23.8348 -3.28526
249 2 1.37957 11.4522 19.6092 -2.56251
250 2 5.77942 3.7594 19.7029 -2.48605
251 2 4.7816 12.9409 19.9208 -2.22638
252 2 2.78083 13.9585 19.6808 -2.7314
253 2 4.36855 1.53964 19.5934 -2.27246
254 2 5.88432 0.411625 20.2735 -2.04917
255 2 5.95023 13.0812 19.458 -3.43008
256 2 8.74204 8.93628 19.6231 -2.36638
257 2 0.106783 3.92712 19.7201 -2.5632
258 2 8.50911 13.6171 19.8235 -3.06651
259 2 4.32872 3.37635 17.5548 -3.62925
260 2 3.03858 5.61093 17.5548 -3.39557
261 2 5.61887 5.61093 17.5548 -3.60668
262 2 4.32872 8.24241 17.5548 -3.24805
263 2 3.03858 10.477 17.5548 -3.33575
264 2 5.61887 10.477 17.5548 -3.30379
265 2 1.40472 12.91 17.5548 -3.80708
266 2 7.25273 12.91 17.5548 -3.82788
267 2 0.114574 10.6754 17.5548 -3.72502
268 2 0.114574 5.80937 17.5548 -3.60698
269 2 1.40472 8.04397 17.5548 -3.44367
270 2 7.25273 8.04397 17.5548 -3.5727
271 2 1.40472 3.1779 17.5548 -3.42253
272 2 7.25273 3.1779 17.5548 -3.81096
273 2 0.114574 0.943306 17.5548 -3.3837
274 2 4.32872 13.1085 17.5548 -4.35649
275 2 3.03858 0.744873 17.5548 -3.77138
276 2 5.61887 0.744873 17.5548 -4.17702
105 1 7.0236 5.02485 26.1582 -3.39895
106 1 1.40472 5.02485 26.1582 -3.3887
107 1 5.61888 7.45787 26.1696 -3.38517
108 1 0 7.45787 26.1696 -3.40198
109 1 4.21416 5.02485 26.1582 -3.40982
110 1 2.80944 7.45787 26.1696 -3.39208
111 1 7.0236 9.89091 26.181 -3.4032
112 1 1.40472 9.89091 26.181 -3.3944
113 1 5.61888 12.3239 26.1924 -3.40985
114 1 0 12.3239 26.1924 -3.39728
115 1 4.21416 9.89091 26.181 -3.41894
116 1 2.80944 12.3239 26.1924 -3.43236
123 1 4.21416 0.158785 26.1354 -3.42673
125 1 7.0236 0.158785 26.1354 -3.39667
127 1 1.40472 0.158785 26.1354 -3.40599
129 1 5.61888 2.59181 26.1468 -3.39895
130 1 0 2.59181 26.1468 -3.41006
131 1 2.80944 2.59181 26.1468 -3.42344
141 1 5.61888 5.81468 30.8164 -3.35104
142 1 0 5.81468 30.8164 -3.35104
143 1 7.0236 8.24771 30.8277 -3.35103
144 1 1.40472 8.24771 30.8277 -3.35103
145 1 4.21416 8.24771 30.8277 -3.35103
146 1 2.80944 5.81468 30.8164 -3.35104
147 1 7.0236 1.77021 28.4702 -3.35207
148 1 1.40472 1.77021 28.4702 -3.35207
149 1 4.21416 1.77021 28.4702 -3.35207
150 1 7.0236 6.63627 28.493 -3.35105
151 1 1.40472 6.63627 28.493 -3.35104
152 1 5.61888 4.20324 28.4816 -3.35108
153 1 0 4.20324 28.4816 -3.35108
154 1 4.21416 6.63627 28.493 -3.35104
155 1 2.80944 4.20324 28.4816 -3.35108
156 1 5.61888 9.06931 28.5044 -3.35104
157 1 0 9.06931 28.5044 -3.35104
158 1 7.0236 11.5023 28.5158 -3.35223
159 1 1.40472 11.5023 28.5158 -3.35223
160 1 4.21416 11.5023 28.5158 -3.35223
161 1 2.80944 9.06931 28.5044 -3.35104
162 1 2.80944 0.94862 30.7936 -3.3559
163 1 2.80944 13.9354 28.5271 -3.34153
164 1 0 0.94862 30.7936 -3.3559
165 1 0 13.9354 28.5271 -3.34154
166 1 5.61888 0.94862 30.7936 -3.3559
167 1 5.61888 13.9354 28.5271 -3.34153
168 1 7.0236 3.38164 30.805 -3.34972
169 1 1.40472 3.38164 30.805 -3.34972
170 1 4.21416 3.38164 30.805 -3.34972
181 1 4.21416 13.1138 30.8505 -3.35589
182 1 5.61888 10.6807 30.8392 -3.34972
183 1 0 10.6807 30.8392 -3.34973
185 1 7.0236 13.1138 30.8505 -3.3559
187 1 1.40472 13.1138 30.8505 -3.35589
188 1 2.80944 10.6807 30.8392 -3.34972
171 1 5.61888 7.42612 33.1512 -3.35104
172 1 0 7.42612 33.1512 -3.35104
173 1 7.0236 9.85914 33.1626 -3.35108
174 1 1.40472 9.85914 33.1626 -3.35108
175 1 4.21416 9.85914 33.1626 -3.35108
176 1 2.80944 7.42612 33.1512 -3.35104
177 1 5.61888 12.2922 33.1739 -3.35206
178 1 0 12.2922 33.1739 -3.35206
179 1 2.80944 12.2922 33.1739 -3.35206
180 1 4.21416 0.127019 33.117 -3.34154
184 1 7.0236 0.127019 33.117 -3.34154
186 1 1.40472 0.127019 33.117 -3.34154
189 1 5.61888 2.56006 33.1284 -3.35222
190 1 0 2.56006 33.1284 -3.35222
191 1 7.0236 4.99308 33.1397 -3.35105
192 1 1.40472 4.99308 33.1397 -3.35104
193 1 4.21416 4.99308 33.1397 -3.35104
194 1 2.80944 2.56006 33.1284 -3.35222
195 1 5.61888 12.2604 40.1555 -2.97112
196 1 0 12.2604 40.1555 -2.97112
197 1 2.80944 12.2604 40.1555 -2.97111
198 1 7.0236 9.82739 40.1441 -2.97446
199 1 1.40472 9.82739 40.1441 -2.97446
200 1 4.21416 9.82739 40.1441 -2.97446
201 1 5.61888 5.78293 37.7979 -3.43976
202 1 0 5.78293 37.7979 -3.43976
203 1 7.0236 8.21595 37.8093 -3.43975
204 1 1.40472 8.21595 37.8093 -3.43975
205 1 4.21416 8.21595 37.8093 -3.43975
206 1 2.80944 5.78293 37.7979 -3.43976
207 1 4.21416 0.095268 40.0985 -2.9788
208 1 4.21416 13.082 37.8321 -3.44396
209 1 5.61888 2.52829 40.11 -2.97213
210 1 0 2.52829 40.11 -2.97213
211 1 5.61888 10.649 37.8207 -3.43844
212 1 0 10.649 37.8207 -3.43844
213 1 7.0236 0.095268 40.0985 -2.97881
214 1 7.0236 13.082 37.8321 -3.44396
215 1 1.40472 0.095268 40.0985 -2.97881
216 1 1.40472 13.082 37.8321 -3.44396
217 1 2.80944 2.52829 40.11 -2.97213
218 1 2.80944 10.649 37.8207 -3.43844
219 1 7.0236 4.96133 40.1213 -2.97443
220 1 1.40472 4.96133 40.1213 -2.97443
221 1 5.61888 7.39435 40.1327 -2.97441
222 1 0 7.39435 40.1327 -2.97442
223 1 4.21416 4.96133 40.1213 -2.97442
224 1 2.80944 7.39435 40.1327 -2.97441
225 1 5.61888 9.03756 35.4859 -3.35104
226 1 0 9.03756 35.4859 -3.35105
227 1 7.0236 11.4706 35.4973 -3.35223
228 1 1.40472 11.4706 35.4973 -3.35223
229 1 4.21416 11.4706 35.4973 -3.35223
230 1 2.80944 9.03756 35.4859 -3.35104
231 1 2.80944 0.916869 37.7751 -3.4418
232 1 2.80944 13.9036 35.5087 -3.34154
233 1 0 0.916869 37.7751 -3.44181
234 1 0 13.9036 35.5087 -3.34155
235 1 5.61888 0.916869 37.7751 -3.4418
236 1 5.61888 13.9036 35.5087 -3.34154
237 1 7.0236 3.34989 37.7865 -3.43844
238 1 1.40472 3.34989 37.7865 -3.43843
239 1 4.21416 3.34989 37.7865 -3.43843
240 1 7.0236 1.73846 35.4518 -3.35208
241 1 1.40472 1.73846 35.4518 -3.35207
242 1 4.21416 1.73846 35.4518 -3.35207
243 1 7.0236 6.60452 35.4745 -3.35104
244 1 1.40472 6.60452 35.4745 -3.35104
245 1 5.61888 4.17149 35.4632 -3.35108
246 1 0 4.17149 35.4632 -3.35108
247 1 4.21416 6.60452 35.4745 -3.35104
248 1 2.80944 4.17149 35.4632 -3.35108
