ITEM: TIMESTEP
75
ITEM: NUMBER OF ATOMS
386
ITEM: BOX BOUNDS pp pp pp
0.0000000000000000e+00 8.4283000000000001e+00
0.0000000000000000e+00 1.4598200000000000e+01
0.0000000000000000e+00 4.9476269000000002e+01
ITEM: ATOMS id type x y z c_peatom
72 1 2.92401 12.1652 3.61953 -2.2941
73 1 7.13816 4.86606 3.61953 -2.29409
74 1 5.73344 7.2991 5.31004 -6.5982
75 1 7.13816 9.73214 3.61953 -2.29409
76 1 5.73344 12.1652 5.31004 -6.5982
77 1 7.13816 0 3.61953 -2.29408
78 1 5.73344 2.43304 5.31004 -6.5982
79 1 2.92401 7.2991 3.61953 -2.29408
80 1 1.51929 9.73212 5.31004 -6.59819
81 1 2.92401 2.43304 3.61953 -2.29408
82 1 1.51929 4.86606 5.31004 -6.5982
83 1 1.51929 0 5.31004 -6.59819
84 1 0.114574 7.2991 5.80124 -6.54405
85 1 4.32872 9.73212 5.80124 -6.54404
86 1 2.92401 7.2991 7.4917 -6.40207
87 1 0.114574 12.1652 5.80124 -6.54405
88 1 7.13816 9.73214 7.4917 -6.40206
89 1 4.32872 0 5.80124 -6.54405
90 1 2.92401 12.1652 7.4917 -6.40208
91 1 0.114574 2.43304 5.80124 -6.54404
92 1 7.13816 0 7.4917 -6.40207
93 1 4.32872 4.86606 5.80124 -6.54403
94 1 2.92401 2.43304 7.4917 -6.40207
95 1 7.13816 4.86606 7.4917 -6.40206
96 1 5.73344 12.1652 7.98285 -6.40205
99 1 5.73344 7.2991 7.98285 -6.40204
100 1 1.51929 9.73212 7.98285 -6.40204
103 1 5.73344 2.43304 7.98285 -6.40204
104 1 1.51929 4.86606 7.98285 -6.40204
106 1 1.51929 0 7.98285 -6.40204
108 1 4.32872 9.73212 3.12833 -3.27315
109 1 4.32872 4.86606 3.12833 -3.27316
110 1 0.114574 12.1652 3.12833 -3.27315
111 1 0.114574 2.43304 3.12833 -3.27315
112 1 0.114574 7.2991 3.12833 -3.27315
113 1 4.32872 0 3.12833 -3.27314
326 2 3.03858 10.477 4.46474 -3.32409
327 2 1.40472 12.91 4.46474 -3.32409
328 2 4.32872 13.1085 4.46474 -3.32408
329 2 7.25273 3.1779 4.46474 -3.32408
330 2 0.114574 5.80937 4.46474 -3.32409
331 2 5.61887 5.61093 4.46474 -3.32408
332 2 0.114574 10.6754 4.46474 -3.32409
333 2 5.61887 10.477 4.46474 -3.32408
334 2 7.25273 8.04396 4.46474 -3.32409
335 2 0.114574 0.943306 4.46474 -3.32409
336 2 5.61887 0.744873 4.46474 -3.32408
337 2 7.25273 12.91 4.46474 -3.32408
338 2 1.40472 8.04396 4.46474 -3.32407
339 2 4.32872 8.24241 4.46474 -3.32408
340 2 3.03858 5.61092 4.46474 -3.32409
341 2 1.40472 3.1779 4.46474 -3.32408
342 2 4.32872 3.37635 4.46474 -3.32409
343 2 3.03858 0.744859 4.46474 -3.32408
344 2 0.22914 8.98727 6.64644 -4.12705
345 2 7.02359 6.55424 6.64644 -4.12705
346 2 1.51929 6.35579 6.64644 -4.12705
347 2 5.73344 8.78883 6.64644 -4.12705
348 2 2.80944 8.98727 6.64644 -4.12704
349 2 4.44329 11.4203 6.64644 -4.12706
350 2 0.22914 13.8533 6.64644 -4.12706
351 2 7.02359 11.4203 6.64644 -4.12704
352 2 1.51929 11.2219 6.64644 -4.12706
353 2 4.44329 1.68816 6.64644 -4.12706
354 2 5.73344 13.6549 6.64644 -4.12705
355 2 2.80944 13.8533 6.64644 -4.12705
356 2 0.22914 4.1212 6.64644 -4.12705
357 2 1.51929 1.48973 6.64644 -4.12705
358 2 7.02359 1.68816 6.64644 -4.12705
359 2 2.80944 4.1212 6.64644 -4.12704
360 2 5.73344 3.92275 6.64644 -4.12704
361 2 4.44329 6.55424 6.64644 -4.12706
36 1 5.73344 2.43304 14.5279 -6.40125
37 1 4.32872 4.86606 16.2184 -6.379
38 1 5.73344 12.1652 14.5279 -6.40126
39 1 5.73344 7.2991 14.5279 -6.40126
40 1 4.32872 9.73212 16.2184 -6.31186
41 1 1.51928 4.86606 14.5279 -6.40124
42 1 0.114574 2.43304 16.2184 -6.38908
43 1 1.51928 0 14.5279 -6.40125
44 1 0.114574 12.1652 16.2184 -6.38743
45 1 1.51928 9.73212 14.5279 -6.40124
46 1 0.114574 7.2991 16.2184 -6.32728
47 1 4.32872 0 16.2184 -6.34589
48 1 2.92401 12.1652 10.1646 -6.40196
49 1 2.92401 7.2991 10.1646 -6.40195
50 1 1.51929 9.73212 11.855 -6.4021
51 1 7.13816 4.86606 10.1646 -6.40194
52 1 5.73344 2.43304 11.855 -6.40212
53 1 7.13816 0 10.1646 -6.40195
54 1 5.73344 12.1652 11.855 -6.40212
55 1 7.13816 9.73214 10.1646 -6.40194
56 1 5.73344 7.2991 11.855 -6.40212
57 1 2.92401 2.43304 10.1646 -6.40195
58 1 1.51929 0 11.855 -6.40212
59 1 1.51929 4.86606 11.855 -6.4021
60 1 4.32872 0 12.3462 -6.40196
61 1 2.92401 2.43304 14.0367 -6.38416
62 1 7.13816 0 14.0367 -6.38415
63 1 0.114574 7.2991 12.3462 -6.40197
64 1 0.114574 2.43304 12.3462 -6.40196
65 1 7.13816 4.86606 14.0367 -6.38415
66 1 4.32872 4.86606 12.3462 -6.40196
67 1 2.92401 7.2991 14.0367 -6.38417
68 1 0.114574 12.1652 12.3462 -6.40197
69 1 4.32872 9.73212 12.3462 -6.40196
70 1 7.13816 9.73214 14.0367 -6.38415
71 1 2.92401 12.1652 14.0367 -6.38418
97 1 0.114574 12.1652 9.67335 -6.40208
98 1 4.32872 9.73212 9.67335 -6.40207
101 1 0.114574 7.2991 9.67335 -6.40207
102 1 4.32872 4.86606 9.67335 -6.40207
105 1 0.114574 2.43304 9.67335 -6.40207
107 1 4.32872 0 9.67335 -6.40207
272 2 5.84801 4.1212 15.3731 -4.12743
273 2 7.13816 1.48973 15.3731 -4.12743
274 2 4.21415 1.68818 15.3731 -4.12744
275 2 5.84801 13.8533 15.3731 -4.12743
276 2 7.13816 11.2219 15.3731 -4.12743
277 2 4.21415 11.4203 15.3731 -4.12745
278 2 5.84801 8.98727 15.3731 -4.12743
279 2 7.13816 6.35579 15.3731 -4.12744
280 2 4.21415 6.55424 15.3731 -4.12745
281 2 0 4.1212 15.3731 -4.12742
282 2 2.92401 3.92275 15.3731 -4.12744
283 2 1.63386 6.55424 15.3731 -4.12744
284 2 1.63386 1.68816 15.3731 -4.12743
285 2 0 13.8533 15.3731 -4.12744
286 2 2.92401 13.6549 15.3731 -4.12745
287 2 0 8.98727 15.3731 -4.12744
288 2 2.92401 8.78882 15.3731 -4.12744
289 2 1.63386 11.4203 15.3731 -4.12744
290 2 3.03858 13.8533 11.0098 -4.12708
291 2 1.40472 11.4203 11.0098 -4.12708
292 2 4.32872 11.2219 11.0098 -4.12709
293 2 3.03858 8.98727 11.0098 -4.12707
294 2 1.40472 6.55424 11.0098 -4.12709
295 2 4.32872 6.35579 11.0098 -4.12709
296 2 5.61887 4.1212 11.0098 -4.12707
297 2 0.114574 3.92275 11.0098 -4.12708
298 2 7.25273 6.55424 11.0098 -4.12709
299 2 0.114574 13.6549 11.0098 -4.12709
300 2 5.61887 13.8533 11.0098 -4.12707
301 2 7.25273 1.68818 11.0098 -4.12709
302 2 7.25273 11.4203 11.0098 -4.12707
303 2 5.61887 8.98727 11.0098 -4.12708
304 2 0.114574 8.78882 11.0098 -4.12709
305 2 3.03858 4.1212 11.0098 -4.12707
306 2 4.32872 1.48973 11.0098 -4.12708
307 2 1.40472 1.68816 11.0098 -4.12708
308 2 5.73344 0.943306 13.1914 -4.12709
309 2 2.80944 0.744873 13.1914 -4.12708
310 2 4.44329 12.91 13.1914 -4.1271
311 2 0.22914 5.61093 13.1914 -4.12709
312 2 7.02359 8.04396 13.1914 -4.12709
313 2 1.51929 8.24241 13.1914 -4.12708
314 2 0.22914 0.744873 13.1914 -4.12709
315 2 7.02359 3.1779 13.1914 -4.12708
316 2 1.51929 3.37635 13.1914 -4.12708
317 2 4.44329 3.1779 13.1914 -4.12709
318 2 5.73344 5.80937 13.1914 -4.1271
319 2 2.80944 5.61093 13.1914 -4.12709
320 2 0.22914 10.477 13.1914 -4.12709
321 2 7.02359 12.91 13.1914 -4.12709
322 2 1.51929 13.1085 13.1914 -4.12709
323 2 4.44329 8.04396 13.1914 -4.12709
324 2 5.73344 10.6754 13.1914 -4.12709
325 2 2.80944 10.477 13.1914 -4.12709
362 2 5.84801 10.477 8.8281 -4.12712
363 2 7.13816 13.1085 8.8281 -4.12713
364 2 0 10.477 8.8281 -4.12713
365 2 1.63386 12.91 8.8281 -4.12713
366 2 4.21415 8.04396 8.8281 -4.12713
367 2 5.84801 5.61093 8.8281 -4.12712
368 2 7.13816 8.24241 8.8281 -4.12713
369 2 1.63386 8.04396 8.8281 -4.12711
370 2 2.92401 10.6754 8.8281 -4.12713
371 2 4.21415 3.1779 8.8281 -4.12712
372 2 5.84801 0.744873 8.8281 -4.12712
373 2 7.13816 3.37635 8.8281 -4.12712
374 2 1.63386 3.1779 8.8281 -4.12711
375 2 2.92401 5.80937 8.8281 -4.12713
376 2 2.92401 0.943306 8.8281 -4.12713
377 2 4.21415 12.91 8.8281 -4.12713
378 2 0 0.744859 8.8281 -4.12713
379 2 0 5.61092 8.8281 -4.12714
1 1 5.61888 0.980371 23.812 -3.20781
2 1 0 0.980371 23.812 -3.05431
3 1 2.80944 0.980371 23.812 -2.93885
16 1 5.61888 10.7125 23.8576 -3.11904
17 1 0 10.7125 23.8576 -3.13997
18 1 2.21987 3.98864 21.056 -2.59652
19 1 8.5326 5.24154 21.227 -2.34212
20 1 6.15791 14.4646 21.4876 -1.89501
21 1 1.32058 8.89544 20.7121 -5.18394
22 1 7.13816 9.73214 19.0018 -5.38643
23 1 4.32872 4.86606 18.5106 -3.61216
24 1 2.92401 7.2991 16.7095 -6.4361
25 1 4.32872 9.73212 18.5106 -6.75143
26 1 3.24839 10.3336 21.2581 -3.40866
27 1 2.92401 12.1652 16.7095 -6.46267
28 1 0.114574 12.1652 18.5106 -3.98744
29 1 0.114574 7.2991 18.5106 -5.51565
30 1 7.13816 9.73214 16.7095 -6.47322
31 1 0.114574 2.43304 18.5106 -4.19868
32 1 7.13816 4.86606 16.7095 -6.54132
33 1 4.32872 0 18.5106 -5.48663
34 1 2.92401 2.43304 16.7095 -6.55016
35 1 7.13816 0 16.7095 -6.59779
114 1 2.92401 12.1652 19.0018 -6.08432
115 1 7.13816 4.86606 19.0018 -3.87499
116 1 2.92401 2.43304 19.0018 -3.5455
117 1 2.92401 7.2991 19.0018 -6.51774
118 1 7.13816 0 19.0018 -2.78678
119 1 2.80944 10.7125 23.8576 -3.159
120 1 7.26916 12.0291 21.238 -1.86585
121 1 0 5.84643 23.8348 -3.19592
122 1 1.40472 8.27947 23.8462 -3.04727
123 1 7.0236 8.27947 23.8462 -2.9533
124 1 5.61888 5.84643 23.8348 -2.95258
125 1 7.0236 3.41341 23.8235 -2.99684
126 1 1.40472 3.41341 23.8235 -3.21815
127 1 4.21416 8.27947 23.8462 -3.02715
128 1 4.21416 3.41341 23.8235 -3.04356
129 1 2.80944 5.84643 23.8348 -3.04161
131 1 4.21416 13.1455 23.869 -3.06731
133 1 7.0236 13.1455 23.869 -3.40802
135 1 1.40472 13.1455 23.869 -2.94234
247 2 0.471408 4.17904 19.5308 -2.78569
248 2 4.66696 1.41138 20.792 -2.00918
249 2 1.57797 10.9308 19.8341 -2.81744
250 2 8.94617 9.03269 19.0631 -3.44537
251 2 7.77661 8.72131 20.6821 -1.79065
252 2 4.32872 3.37635 17.5548 -3.52515
253 2 3.03858 5.61093 17.5548 -3.90001
254 2 5.61887 5.61093 17.5548 -3.22411
255 2 4.28462 11.1473 19.7713 -2.93241
256 2 5.6192 8.52814 19.6577 -3.63835
257 2 4.32872 8.24241 17.5548 -4.15136
258 2 3.03858 10.477 17.5548 -4.08859
259 2 5.61887 10.477 17.5548 -3.68309
260 2 1.40472 12.91 17.5548 -3.75752
261 2 7.25273 12.91 17.5548 -3.38667
262 2 0.114574 10.6754 17.5548 -3.60451
263 2 0.114574 5.80937 17.5548 -3.6363
264 2 1.40472 8.04397 17.5548 -3.89051
265 2 7.25273 8.04397 17.5548 -4.07194
266 2 1.40472 3.1779 17.5548 -3.5269
267 2 7.25273 3.1779 17.5548 -3.56247
268 2 0.114574 0.943306 17.5548 -3.37959
269 2 4.32872 13.1085 17.5548 -3.92818
270 2 3.03858 0.744873 17.5548 -3.80673
271 2 5.61887 0.744873 17.5548 -3.59294
380 2 1.1094 2.45872 21.1519 -0.909987
381 2 3.90722 6.11621 19.9512 -1.68163
382 2 5.33225 7.37541 19.2675 -2.4766
383 2 3.01079 8.99724 19.7728 -4.10862
384 2 1.35673 6.64877 19.8509 -2.7607
385 2 2.79331 13.9888 19.5577 -1.89901
386 2 4.50558 1.63983 19.569 -3.41797
4 1 7.0236 5.02485 26.1582 -3.42567
5 1 1.40472 5.02485 26.1582 -3.41658
6 1 5.61888 7.45787 26.1696 -3.431
7 1 0 7.45787 26.1696 -3.41278
8 1 4.21416 5.02485 26.1582 -3.43455
9 1 2.80944 7.45787 26.1696 -3.41588
10 1 7.0236 9.89091 26.181 -3.42775
11 1 1.40472 9.89091 26.181 -3.40509
12 1 5.61888 12.3239 26.1924 -3.4172
13 1 0 12.3239 26.1924 -3.4145
14 1 4.21416 9.89091 26.181 -3.41583
15 1 2.80944 12.3239 26.1924 -3.413
130 1 4.21416 0.158785 26.1354 -3.41705
132 1 7.0236 0.158785 26.1354 -3.39855
134 1 1.40472 0.158785 26.1354 -3.42582
136 1 5.61888 2.59181 26.1468 -3.40747
137 1 0 2.59181 26.1468 -3.41852
138 1 2.80944 2.59181 26.1468 -3.4228
139 1 5.61888 5.81468 30.8164 -3.35104
140 1 0 5.81468 30.8164 -3.35104
141 1 7.0236 8.24771 30.8277 -3.35103
142 1 1.40472 8.24771 30.8277 -3.35103
143 1 4.21416 8.24771 30.8277 -3.35103
144 1 2.80944 5.81468 30.8164 -3.35104
145 1 7.0236 1.77021 28.4702 -3.35207
146 1 1.40472 1.77021 28.4702 -3.35207
147 1 4.21416 1.77021 28.4702 -3.35207
148 1 7.0236 6.63627 28.493 -3.35105
149 1 1.40472 6.63627 28.493 -3.35104
150 1 5.61888 4.20324 28.4816 -3.35108
151 1 0 4.20324 28.4816 -3.35108
152 1 4.21416 6.63627 28.493 -3.35104
153 1 2.80944 4.20324 28.4816 -3.35108
154 1 5.61888 9.06931 28.5044 -3.35104
155 1 0 9.06931 28.5044 -3.35104
156 1 7.0236 11.5023 28.5158 -3.35223
157 1 1.40472 11.5023 28.5158 -3.35223
158 1 4.21416 11.5023 28.5158 -3.35223
159 1 2.80944 9.06931 28.5044 -3.35104
160 1 2.80944 0.94862 30.7936 -3.3559
161 1 2.80944 13.9354 28.5271 -3.34153
162 1 0 0.94862 30.7936 -3.3559
163 1 0 13.9354 28.5271 -3.34154
164 1 5.61888 0.94862 30.7936 -3.3559
165 1 5.61888 13.9354 28.5271 -3.34153
166 1 7.0236 3.38164 30.805 -3.34972
167 1 1.40472 3.38164 30.805 -3.34972
168 1 4.21416 3.38164 30.805 -3.34972
179 1 4.21416 13.1138 30.8505 -3.35589
180 1 5.61888 10.6807 30.8392 -3.34972
181 1 0 10.6807 30.8392 -3.34973
183 1 7.0236 13.1138 30.8505 -3.3559
185 1 1.40472 13.1138 30.8505 -3.35589
186 1 2.80944 10.6807 30.8392 -3.34972
169 1 5.61888 7.42612 33.1512 -3.35104
170 1 0 7.42612 33.1512 -3.35104
171 1 7.0236 9.85914 33.1626 -3.35108
172 1 1.40472 9.85914 33.1626 -3.35108
173 1 4.21416 9.85914 33.1626 -3.35108
174 1 2.80944 7.42612 33.1512 -3.35104
175 1 5.61888 12.2922 33.1739 -3.35206
176 1 0 12.2922 33.1739 -3.35206
177 1 2.80944 12.2922 33.1739 -3.35206
178 1 4.21416 0.127019 33.117 -3.34154
182 1 7.0236 0.127019 33.117 -3.34154
184 1 1.40472 0.127019 33.117 -3.34154
187 1 5.61888 2.56006 33.1284 -3.35222
188 1 0 2.56006 33.1284 -3.35222
189 1 7.0236 4.99308 33.1397 -3.35105
190 1 1.40472 4.99308 33.1397 -3.35104
191 1 4.21416 4.99308 33.1397 -3.35104
192 1 2.80944 2.56006 33.1284 -3.35222
193 1 5.61888 12.2604 40.1555 -2.97112
194 1 0 12.2604 40.1555 -2.97112
195 1 2.80944 12.2604 40.1555 -2.97111
196 1 7.0236 9.82739 40.1441 -2.97446
197 1 1.40472 9.82739 40.1441 -2.97446
198 1 4.21416 9.82739 40.1441 -2.97446
199 1 5.61888 5.78293 37.7979 -3.43976
200 1 0 5.78293 37.7979 -3.43976
201 1 7.0236 8.21595 37.8093 -3.43975
202 1 1.40472 8.21595 37.8093 -3.43975
203 1 4.21416 8.21595 37.8093 -3.43975
204 1 2.80944 5.78293 37.7979 -3.43976
205 1 4.21416 0.095268 40.0985 -2.9788
206 1 4.21416 13.082 37.8321 -3.44396
207 1 5.61888 2.52829 40.11 -2.97213
208 1 0 2.52829 40.11 -2.97213
209 1 5.61888 10.649 37.8207 -3.43844
210 1 0 10.649 37.8207 -3.43844
211 1 7.0236 0.095268 40.0985 -2.97881
212 1 7.0236 13.082 37.8321 -3.44396
213 1 1.40472 0.095268 40.0985 -2.97881
214 1 1.40472 13.082 37.8321 -3.44396
215 1 2.80944 2.52829 40.11 -2.97213
216 1 2.80944 10.649 37.8207 -3.43844
217 1 7.0236 4.96133 40.1213 -2.97443
218 1 1.40472 4.96133 40.1213 -2.97443
219 1 5.61888 7.39435 40.1327 -2.97441
220 1 0 7.39435 40.1327 -2.97442
221 1 4.21416 4.96133 40.1213 -2.97442
222 1 2.80944 7.39435 40.1327 -2.97441
223 1 5.61888 9.03756 35.4859 -3.35104
224 1 0 9.03756 35.4859 -3.35105
225 1 7.0236 11.4706 35.4973 -3.35223
226 1 1.40472 11.4706 35.4973 -3.35223
227 1 4.21416 11.4706 35.4973 -3.35223
228 1 2.80944 9.03756 35.4859 -3.35104
229 1 2.80944 0.916869 37.7751 -3.4418
230 1 2.80944 13.9036 35.5087 -3.34154
231 1 0 0.916869 37.7751 -3.44181
232 1 0 13.9036 35.5087 -3.34155
233 1 5.61888 0.916869 37.7751 -3.4418
234 1 5.61888 13.9036 35.5087 -3.34154
235 1 7.0236 3.34989 37.7865 -3.43844
236 1 1.40472 3.34989 37.7865 -3.43843
237 1 4.21416 3.34989 37.7865 -3.43843
238 1 7.0236 1.73846 35.4518 -3.35208
239 1 1.40472 1.73846 35.4518 -3.35207
240 1 4.21416 1.73846 35.4518 -3.35207
241 1 7.0236 6.60452 35.4745 -3.35104
242 1 1.40472 6.60452 35.4745 -3.35104
243 1 5.61888 4.17149 35.4632 -3.35108
244 1 0 4.17149 35.4632 -3.35108
245 1 4.21416 6.60452 35.4745 -3.35104
246 1 2.80944 4.17149 35.4632 -3.35108
