ITEM: TIMESTEP
1005
ITEM: NUMBER OF ATOMS
17
ITEM: BOX BOUNDS ff ff ff
0.0000000000000000e+00 1.8000000000000000e+01
0.0000000000000000e+00 1.8000000000000000e+01
0.0000000000000000e+00 1.8000000000000000e+01
ITEM: ATOMS id type x y z c_peatom 
8 2 7.89036 6.76056 8.66411 -3.29674 
1 1 9.33331 7.63378 7.68343 -5.69569 
13 2 10.3212 11.6198 6.75808 -0.856278 
7 2 10.3936 6.37786 8.61633 -3.58836 
9 2 11.1975 8.31612 7.67987 -3.4137 
3 1 7.32693 11.9937 8.08897 -4.87497 
10 2 6.88674 10.566 7.43995 -3.42216 
11 2 9.19735 11.6975 7.90892 -3.14201 
12 2 7.12709 8.88236 11.5939 -3.29287 
16 2 8.91549 6.76896 11.1869 -2.92817 
5 1 8.95819 5.79755 9.80778 -6.41219 
15 2 9.41644 8.2571 9.50904 -4.02855 
4 1 7.25854 10.5168 11.503 -5.19623 
14 2 9.09109 10.5472 11.4197 -3.62453 
6 1 9.36062 10.2453 9.59216 -5.74534 
17 2 11.195 10.0739 9.67409 -3.52986 
2 1 11.3472 8.18875 9.47317 -5.75599 
