ITEM: TIMESTEP
62
ITEM: NUMBER OF ATOMS
390
ITEM: BOX BOUNDS pp pp pp
0.0000000000000000e+00 8.4283000000000001e+00
0.0000000000000000e+00 1.4598200000000000e+01
0.0000000000000000e+00 4.9476269000000002e+01
ITEM: ATOMS id type x y z c_peatom
68 1 2.92401 12.1652 3.61953 -2.2941
69 1 7.13816 4.86606 3.61953 -2.29409
70 1 5.73344 7.2991 5.31004 -6.5982
71 1 7.13816 9.73214 3.61953 -2.29409
72 1 5.73344 12.1652 5.31004 -6.5982
73 1 7.13816 0 3.61953 -2.29408
74 1 5.73344 2.43304 5.31004 -6.5982
75 1 2.92401 7.2991 3.61953 -2.29408
76 1 1.51929 9.73212 5.31004 -6.59819
77 1 2.92401 2.43304 3.61953 -2.29408
78 1 1.51929 4.86606 5.31004 -6.5982
79 1 1.51929 0 5.31004 -6.59819
80 1 0.114574 7.2991 5.80124 -6.54405
81 1 4.32872 9.73212 5.80124 -6.54404
82 1 2.92401 7.2991 7.4917 -6.40207
83 1 0.114574 12.1652 5.80124 -6.54405
84 1 7.13816 9.73214 7.4917 -6.40206
85 1 4.32872 0 5.80124 -6.54405
86 1 2.92401 12.1652 7.4917 -6.40208
87 1 0.114574 2.43304 5.80124 -6.54404
88 1 7.13816 0 7.4917 -6.40207
89 1 4.32872 4.86606 5.80124 -6.54403
90 1 2.92401 2.43304 7.4917 -6.40207
91 1 7.13816 4.86606 7.4917 -6.40206
92 1 5.73344 12.1652 7.98285 -6.40205
95 1 5.73344 7.2991 7.98285 -6.40204
96 1 1.51929 9.73212 7.98285 -6.40204
99 1 5.73344 2.43304 7.98285 -6.40204
100 1 1.51929 4.86606 7.98285 -6.40204
102 1 1.51929 0 7.98285 -6.40204
104 1 4.32872 9.73212 3.12833 -3.27315
105 1 4.32872 4.86606 3.12833 -3.27316
106 1 0.114574 12.1652 3.12833 -3.27315
107 1 0.114574 2.43304 3.12833 -3.27315
108 1 0.114574 7.2991 3.12833 -3.27315
109 1 4.32872 0 3.12833 -3.27314
329 2 3.03858 10.477 4.46474 -3.32409
330 2 1.40472 12.91 4.46474 -3.32409
331 2 4.32872 13.1085 4.46474 -3.32408
332 2 7.25273 3.1779 4.46474 -3.32408
333 2 0.114574 5.80937 4.46474 -3.32409
334 2 5.61887 5.61093 4.46474 -3.32408
335 2 0.114574 10.6754 4.46474 -3.32409
336 2 5.61887 10.477 4.46474 -3.32408
337 2 7.25273 8.04396 4.46474 -3.32409
338 2 0.114574 0.943306 4.46474 -3.32409
339 2 5.61887 0.744873 4.46474 -3.32408
340 2 7.25273 12.91 4.46474 -3.32408
341 2 1.40472 8.04396 4.46474 -3.32407
342 2 4.32872 8.24241 4.46474 -3.32408
343 2 3.03858 5.61092 4.46474 -3.32409
344 2 1.40472 3.1779 4.46474 -3.32408
345 2 4.32872 3.37635 4.46474 -3.32409
346 2 3.03858 0.744859 4.46474 -3.32408
347 2 0.22914 8.98727 6.64644 -4.12705
348 2 7.02359 6.55424 6.64644 -4.12705
349 2 1.51929 6.35579 6.64644 -4.12705
350 2 5.73344 8.78883 6.64644 -4.12705
351 2 2.80944 8.98727 6.64644 -4.12704
352 2 4.44329 11.4203 6.64644 -4.12706
353 2 0.22914 13.8533 6.64644 -4.12706
354 2 7.02359 11.4203 6.64644 -4.12704
355 2 1.51929 11.2219 6.64644 -4.12706
356 2 4.44329 1.68816 6.64644 -4.12706
357 2 5.73344 13.6549 6.64644 -4.12705
358 2 2.80944 13.8533 6.64644 -4.12705
359 2 0.22914 4.1212 6.64644 -4.12705
360 2 1.51929 1.48973 6.64644 -4.12705
361 2 7.02359 1.68816 6.64644 -4.12705
362 2 2.80944 4.1212 6.64644 -4.12704
363 2 5.73344 3.92275 6.64644 -4.12704
364 2 4.44329 6.55424 6.64644 -4.12706
32 1 5.73344 2.43304 14.5279 -6.40125
33 1 4.32872 4.86606 16.2184 -6.38317
34 1 5.73344 12.1652 14.5279 -6.40126
35 1 5.73344 7.2991 14.5279 -6.40126
36 1 4.32872 9.73212 16.2184 -6.33203
37 1 1.51928 4.86606 14.5279 -6.40124
38 1 0.114574 2.43304 16.2184 -6.42014
39 1 1.51928 0 14.5279 -6.40125
40 1 0.114574 12.1652 16.2184 -6.37808
41 1 1.51928 9.73212 14.5279 -6.40124
42 1 0.114574 7.2991 16.2184 -6.24688
43 1 4.32872 0 16.2184 -6.38476
44 1 2.92401 12.1652 10.1646 -6.40196
45 1 2.92401 7.2991 10.1646 -6.40195
46 1 1.51929 9.73212 11.855 -6.4021
47 1 7.13816 4.86606 10.1646 -6.40194
48 1 5.73344 2.43304 11.855 -6.40212
49 1 7.13816 0 10.1646 -6.40195
50 1 5.73344 12.1652 11.855 -6.40212
51 1 7.13816 9.73214 10.1646 -6.40194
52 1 5.73344 7.2991 11.855 -6.40212
53 1 2.92401 2.43304 10.1646 -6.40195
54 1 1.51929 0 11.855 -6.40212
55 1 1.51929 4.86606 11.855 -6.4021
56 1 4.32872 0 12.3462 -6.40196
57 1 2.92401 2.43304 14.0367 -6.38416
58 1 7.13816 0 14.0367 -6.38415
59 1 0.114574 7.2991 12.3462 -6.40197
60 1 0.114574 2.43304 12.3462 -6.40196
61 1 7.13816 4.86606 14.0367 -6.38415
62 1 4.32872 4.86606 12.3462 -6.40196
63 1 2.92401 7.2991 14.0367 -6.38417
64 1 0.114574 12.1652 12.3462 -6.40197
65 1 4.32872 9.73212 12.3462 -6.40196
66 1 7.13816 9.73214 14.0367 -6.38415
67 1 2.92401 12.1652 14.0367 -6.38418
93 1 0.114574 12.1652 9.67335 -6.40208
94 1 4.32872 9.73212 9.67335 -6.40207
97 1 0.114574 7.2991 9.67335 -6.40207
98 1 4.32872 4.86606 9.67335 -6.40207
101 1 0.114574 2.43304 9.67335 -6.40207
103 1 4.32872 0 9.67335 -6.40207
275 2 5.84801 4.1212 15.3731 -4.12743
276 2 7.13816 1.48973 15.3731 -4.12743
277 2 4.21415 1.68818 15.3731 -4.12744
278 2 5.84801 13.8533 15.3731 -4.12743
279 2 7.13816 11.2219 15.3731 -4.12743
280 2 4.21415 11.4203 15.3731 -4.12745
281 2 5.84801 8.98727 15.3731 -4.12743
282 2 7.13816 6.35579 15.3731 -4.12744
283 2 4.21415 6.55424 15.3731 -4.12745
284 2 0 4.1212 15.3731 -4.12742
285 2 2.92401 3.92275 15.3731 -4.12744
286 2 1.63386 6.55424 15.3731 -4.12744
287 2 1.63386 1.68816 15.3731 -4.12743
288 2 0 13.8533 15.3731 -4.12744
289 2 2.92401 13.6549 15.3731 -4.12745
290 2 0 8.98727 15.3731 -4.12744
291 2 2.92401 8.78882 15.3731 -4.12744
292 2 1.63386 11.4203 15.3731 -4.12744
293 2 3.03858 13.8533 11.0098 -4.12708
294 2 1.40472 11.4203 11.0098 -4.12708
295 2 4.32872 11.2219 11.0098 -4.12709
296 2 3.03858 8.98727 11.0098 -4.12707
297 2 1.40472 6.55424 11.0098 -4.12709
298 2 4.32872 6.35579 11.0098 -4.12709
299 2 5.61887 4.1212 11.0098 -4.12707
300 2 0.114574 3.92275 11.0098 -4.12708
301 2 7.25273 6.55424 11.0098 -4.12709
302 2 0.114574 13.6549 11.0098 -4.12709
303 2 5.61887 13.8533 11.0098 -4.12707
304 2 7.25273 1.68818 11.0098 -4.12709
305 2 7.25273 11.4203 11.0098 -4.12707
306 2 5.61887 8.98727 11.0098 -4.12708
307 2 0.114574 8.78882 11.0098 -4.12709
308 2 3.03858 4.1212 11.0098 -4.12707
309 2 4.32872 1.48973 11.0098 -4.12708
310 2 1.40472 1.68816 11.0098 -4.12708
311 2 5.73344 0.943306 13.1914 -4.12709
312 2 2.80944 0.744873 13.1914 -4.12708
313 2 4.44329 12.91 13.1914 -4.1271
314 2 0.22914 5.61093 13.1914 -4.12709
315 2 7.02359 8.04396 13.1914 -4.12709
316 2 1.51929 8.24241 13.1914 -4.12708
317 2 0.22914 0.744873 13.1914 -4.12709
318 2 7.02359 3.1779 13.1914 -4.12708
319 2 1.51929 3.37635 13.1914 -4.12708
320 2 4.44329 3.1779 13.1914 -4.12709
321 2 5.73344 5.80937 13.1914 -4.1271
322 2 2.80944 5.61093 13.1914 -4.12709
323 2 0.22914 10.477 13.1914 -4.12709
324 2 7.02359 12.91 13.1914 -4.12709
325 2 1.51929 13.1085 13.1914 -4.12709
326 2 4.44329 8.04396 13.1914 -4.12709
327 2 5.73344 10.6754 13.1914 -4.12709
328 2 2.80944 10.477 13.1914 -4.12709
365 2 5.84801 10.477 8.8281 -4.12712
366 2 7.13816 13.1085 8.8281 -4.12713
367 2 0 10.477 8.8281 -4.12713
368 2 1.63386 12.91 8.8281 -4.12713
369 2 4.21415 8.04396 8.8281 -4.12713
370 2 5.84801 5.61093 8.8281 -4.12712
371 2 7.13816 8.24241 8.8281 -4.12713
372 2 1.63386 8.04396 8.8281 -4.12711
373 2 2.92401 10.6754 8.8281 -4.12713
374 2 4.21415 3.1779 8.8281 -4.12712
375 2 5.84801 0.744873 8.8281 -4.12712
376 2 7.13816 3.37635 8.8281 -4.12712
377 2 1.63386 3.1779 8.8281 -4.12711
378 2 2.92401 5.80937 8.8281 -4.12713
379 2 2.92401 0.943306 8.8281 -4.12713
380 2 4.21415 12.91 8.8281 -4.12713
381 2 0 0.744859 8.8281 -4.12713
382 2 0 5.61092 8.8281 -4.12714
13 1 5.61888 10.7125 23.8576 -3.25895
14 1 0 10.7125 23.8576 -3.19362
15 1 5.61888 0.980371 23.812 -3.27548
16 1 4.32872 4.86606 18.5106 -4.22262
17 1 2.92401 7.2991 16.7095 -6.48841
18 1 4.32872 9.73212 18.5106 -5.57373
19 1 2.92401 12.1652 16.7095 -6.49235
20 1 0.114574 12.1652 18.5106 -4.09649
21 1 0.114574 7.2991 18.5106 -8.20848
22 1 7.92963 6.50873 21.2158 -5.37709
23 1 1.22441 9.03968 20.5975 -5.96579
24 1 7.13816 9.73214 19.0018 -7.86094
25 1 1.98064 5.86601 21.0864 -3.91652
26 1 7.13816 9.73214 16.7095 -6.36615
27 1 0.114574 2.43304 18.5106 -2.95154
28 1 7.13816 4.86606 16.7095 -6.50308
29 1 4.32872 0 18.5106 -4.09495
30 1 2.92401 2.43304 16.7095 -6.54741
31 1 7.13816 0 16.7095 -6.63295
110 1 6.71972 11.5766 21.4915 -2.87255
111 1 2.92401 12.1652 19.0018 -5.26588
112 1 7.13816 4.86606 19.0018 -4.66595
113 1 2.92401 2.43304 19.0018 -5.12731
114 1 2.92401 7.2991 19.0018 -3.22945
115 1 7.13816 0 19.0018 -2.52871
116 1 3.8053 11.7994 21.6034 -2.2044
117 1 0 5.84643 23.8348 -3.09621
118 1 1.40472 8.27947 23.8462 -3.01182
119 1 2.80944 10.7125 23.8576 -3.23053
120 1 7.0236 8.27947 23.8462 -3.0881
121 1 0 0.980371 23.812 -2.99727
122 1 5.61888 5.84643 23.8348 -3.02552
123 1 7.0236 3.41341 23.8235 -3.1177
124 1 1.40472 3.41341 23.8235 -2.9232
125 1 4.21416 8.27947 23.8462 -2.98702
126 1 4.21416 3.41341 23.8235 -3.10704
127 1 2.80944 5.84643 23.8348 -3.09126
128 1 2.80944 0.980371 23.812 -3.14747
130 1 4.21416 13.1455 23.869 -3.14266
132 1 7.0236 13.1455 23.869 -3.10528
134 1 1.40472 13.1455 23.869 -3.1058
246 1 1.13749 11.5796 21.3256 -3.09395
247 1 6.16897 2.00454 21.3399 -2.58789
248 1 5.98749 7.64409 21.0831 -3.32501
249 1 3.813 1.31619 21.346 -2.91282
250 2 5.43127 0.254474 21.1695 -1.58694
251 2 4.32872 3.37635 17.5548 -3.82236
252 2 3.03858 5.61093 17.5548 -3.43638
253 2 5.61887 5.61093 17.5548 -3.54483
254 2 4.08018 11.08 19.7927 -2.36747
255 2 4.32872 8.24241 17.5548 -3.44781
256 2 3.03858 10.477 17.5548 -3.88724
257 2 5.61887 10.477 17.5548 -3.87672
258 2 5.66883 8.75128 19.5724 -3.44375
259 2 1.40472 12.91 17.5548 -3.62801
260 2 7.25273 12.91 17.5548 -3.36813
261 2 0.114574 10.6754 17.5548 -3.58463
262 2 1.35059 7.12001 19.8029 -4.32627
263 2 0.423555 9.1029 18.9123 -3.56219
264 2 1.53814 10.8633 19.4765 -3.12632
265 2 8.10046 10.402 20.6748 -3.07618
266 2 0.114574 5.80937 17.5548 -4.04125
267 2 1.40472 8.04397 17.5548 -3.76535
268 2 7.25273 8.04397 17.5548 -4.22242
269 2 1.40472 3.1779 17.5548 -3.51442
270 2 7.25273 3.1779 17.5548 -3.14898
271 2 0.114574 0.943306 17.5548 -3.24836
272 2 4.32872 13.1085 17.5548 -3.42602
273 2 3.03858 0.744873 17.5548 -3.55067
274 2 5.61887 0.744873 17.5548 -3.48066
383 2 2.77782 4.30234 19.5293 -2.42546
384 2 0.365708 5.35975 19.9113 -2.93031
385 2 7.77763 8.32914 20.4261 -4.93539
386 2 0.99071 7.4907 21.9564 -2.61432
387 2 4.70785 1.86012 19.6161 -2.68994
388 2 1.20627 0.482311 20.9073 0
389 2 6.00143 10.8961 19.8123 -2.02167
390 2 6.94341 6.65635 19.499 -4.18106
1 1 7.0236 5.02485 26.1582 -3.39609
2 1 1.40472 5.02485 26.1582 -3.41352
3 1 5.61888 7.45787 26.1696 -3.42724
4 1 0 7.45787 26.1696 -3.37558
5 1 4.21416 5.02485 26.1582 -3.3938
6 1 2.80944 7.45787 26.1696 -3.38164
7 1 7.0236 9.89091 26.181 -3.37639
8 1 1.40472 9.89091 26.181 -3.36492
9 1 5.61888 12.3239 26.1924 -3.41024
10 1 0 12.3239 26.1924 -3.41445
11 1 4.21416 9.89091 26.181 -3.38908
12 1 2.80944 12.3239 26.1924 -3.41148
129 1 4.21416 0.158785 26.1354 -3.38206
131 1 7.0236 0.158785 26.1354 -3.39075
133 1 1.40472 0.158785 26.1354 -3.39097
135 1 5.61888 2.59181 26.1468 -3.41909
136 1 0 2.59181 26.1468 -3.433
137 1 2.80944 2.59181 26.1468 -3.42232
138 1 5.61888 5.81468 30.8164 -3.35104
139 1 0 5.81468 30.8164 -3.35104
140 1 7.0236 8.24771 30.8277 -3.35103
141 1 1.40472 8.24771 30.8277 -3.35103
142 1 4.21416 8.24771 30.8277 -3.35103
143 1 2.80944 5.81468 30.8164 -3.35104
144 1 7.0236 1.77021 28.4702 -3.35207
145 1 1.40472 1.77021 28.4702 -3.35207
146 1 4.21416 1.77021 28.4702 -3.35207
147 1 7.0236 6.63627 28.493 -3.35105
148 1 1.40472 6.63627 28.493 -3.35104
149 1 5.61888 4.20324 28.4816 -3.35108
150 1 0 4.20324 28.4816 -3.35108
151 1 4.21416 6.63627 28.493 -3.35104
152 1 2.80944 4.20324 28.4816 -3.35108
153 1 5.61888 9.06931 28.5044 -3.35104
154 1 0 9.06931 28.5044 -3.35104
155 1 7.0236 11.5023 28.5158 -3.35223
156 1 1.40472 11.5023 28.5158 -3.35223
157 1 4.21416 11.5023 28.5158 -3.35223
158 1 2.80944 9.06931 28.5044 -3.35104
159 1 2.80944 0.94862 30.7936 -3.3559
160 1 2.80944 13.9354 28.5271 -3.34153
161 1 0 0.94862 30.7936 -3.3559
162 1 0 13.9354 28.5271 -3.34154
163 1 5.61888 0.94862 30.7936 -3.3559
164 1 5.61888 13.9354 28.5271 -3.34153
165 1 7.0236 3.38164 30.805 -3.34972
166 1 1.40472 3.38164 30.805 -3.34972
167 1 4.21416 3.38164 30.805 -3.34972
178 1 4.21416 13.1138 30.8505 -3.35589
179 1 5.61888 10.6807 30.8392 -3.34972
180 1 0 10.6807 30.8392 -3.34973
182 1 7.0236 13.1138 30.8505 -3.3559
184 1 1.40472 13.1138 30.8505 -3.35589
185 1 2.80944 10.6807 30.8392 -3.34972
168 1 5.61888 7.42612 33.1512 -3.35104
169 1 0 7.42612 33.1512 -3.35104
170 1 7.0236 9.85914 33.1626 -3.35108
171 1 1.40472 9.85914 33.1626 -3.35108
172 1 4.21416 9.85914 33.1626 -3.35108
173 1 2.80944 7.42612 33.1512 -3.35104
174 1 5.61888 12.2922 33.1739 -3.35206
175 1 0 12.2922 33.1739 -3.35206
176 1 2.80944 12.2922 33.1739 -3.35206
177 1 4.21416 0.127019 33.117 -3.34154
181 1 7.0236 0.127019 33.117 -3.34154
183 1 1.40472 0.127019 33.117 -3.34154
186 1 5.61888 2.56006 33.1284 -3.35222
187 1 0 2.56006 33.1284 -3.35222
188 1 7.0236 4.99308 33.1397 -3.35105
189 1 1.40472 4.99308 33.1397 -3.35104
190 1 4.21416 4.99308 33.1397 -3.35104
191 1 2.80944 2.56006 33.1284 -3.35222
192 1 5.61888 12.2604 40.1555 -2.97112
193 1 0 12.2604 40.1555 -2.97112
194 1 2.80944 12.2604 40.1555 -2.97111
195 1 7.0236 9.82739 40.1441 -2.97446
196 1 1.40472 9.82739 40.1441 -2.97446
197 1 4.21416 9.82739 40.1441 -2.97446
198 1 5.61888 5.78293 37.7979 -3.43976
199 1 0 5.78293 37.7979 -3.43976
200 1 7.0236 8.21595 37.8093 -3.43975
201 1 1.40472 8.21595 37.8093 -3.43975
202 1 4.21416 8.21595 37.8093 -3.43975
203 1 2.80944 5.78293 37.7979 -3.43976
204 1 4.21416 0.095268 40.0985 -2.9788
205 1 4.21416 13.082 37.8321 -3.44396
206 1 5.61888 2.52829 40.11 -2.97213
207 1 0 2.52829 40.11 -2.97213
208 1 5.61888 10.649 37.8207 -3.43844
209 1 0 10.649 37.8207 -3.43844
210 1 7.0236 0.095268 40.0985 -2.97881
211 1 7.0236 13.082 37.8321 -3.44396
212 1 1.40472 0.095268 40.0985 -2.97881
213 1 1.40472 13.082 37.8321 -3.44396
214 1 2.80944 2.52829 40.11 -2.97213
215 1 2.80944 10.649 37.8207 -3.43844
216 1 7.0236 4.96133 40.1213 -2.97443
217 1 1.40472 4.96133 40.1213 -2.97443
218 1 5.61888 7.39435 40.1327 -2.97441
219 1 0 7.39435 40.1327 -2.97442
220 1 4.21416 4.96133 40.1213 -2.97442
221 1 2.80944 7.39435 40.1327 -2.97441
222 1 5.61888 9.03756 35.4859 -3.35104
223 1 0 9.03756 35.4859 -3.35105
224 1 7.0236 11.4706 35.4973 -3.35223
225 1 1.40472 11.4706 35.4973 -3.35223
226 1 4.21416 11.4706 35.4973 -3.35223
227 1 2.80944 9.03756 35.4859 -3.35104
228 1 2.80944 0.916869 37.7751 -3.4418
229 1 2.80944 13.9036 35.5087 -3.34154
230 1 0 0.916869 37.7751 -3.44181
231 1 0 13.9036 35.5087 -3.34155
232 1 5.61888 0.916869 37.7751 -3.4418
233 1 5.61888 13.9036 35.5087 -3.34154
234 1 7.0236 3.34989 37.7865 -3.43844
235 1 1.40472 3.34989 37.7865 -3.43843
236 1 4.21416 3.34989 37.7865 -3.43843
237 1 7.0236 1.73846 35.4518 -3.35208
238 1 1.40472 1.73846 35.4518 -3.35207
239 1 4.21416 1.73846 35.4518 -3.35207
240 1 7.0236 6.60452 35.4745 -3.35104
241 1 1.40472 6.60452 35.4745 -3.35104
242 1 5.61888 4.17149 35.4632 -3.35108
243 1 0 4.17149 35.4632 -3.35108
244 1 4.21416 6.60452 35.4745 -3.35104
245 1 2.80944 4.17149 35.4632 -3.35108
