ITEM: TIMESTEP
1204
ITEM: NUMBER OF ATOMS
17
ITEM: BOX BOUNDS ff ff ff
0.0000000000000000e+00 1.8000000000000000e+01
0.0000000000000000e+00 1.8000000000000000e+01
0.0000000000000000e+00 1.8000000000000000e+01
ITEM: ATOMS id type x y z c_peatom 
2 1 7.60973 8.93591 5.54111 -4.4973 
1 1 8.63708 8.34917 8.04305 -6.77535 
8 2 9.04725 8.1153 6.13898 -3.65999 
3 1 11.3413 9.00194 8.45736 -5.24795 
9 2 10.3315 7.21343 8.36291 -3.66472 
10 2 7.04068 9.16396 7.18169 -3.63658 
11 2 9.76194 9.88915 7.85269 -3.87969 
5 1 8.34211 8.80437 11.1885 -5.25281 
15 2 8.61921 6.89705 10.9659 -3.62483 
6 1 10.2994 6.89832 10.2786 -4.68782 
17 2 9.99593 8.79265 9.9938 -4.81566 
12 2 7.76198 9.51225 9.53808 -3.84028 
13 2 7.6815 12.0076 9.48438 -2.77054 
7 1 11.1975 9.62741 11.2708 -4.65622 
14 2 9.45023 10.5452 11.3724 -3.70961 
4 1 9.05115 10.967 9.49628 -6.74675 
16 2 12.1824 10.0934 9.8238 -3.66728 
