ITEM: TIMESTEP
989
ITEM: NUMBER OF ATOMS
17
ITEM: BOX BOUNDS ff ff ff
0.0000000000000000e+00 1.8000000000000000e+01
0.0000000000000000e+00 1.8000000000000000e+01
0.0000000000000000e+00 1.8000000000000000e+01
ITEM: ATOMS id type x y z c_peatom 
1 1 8.25948 7.33967 7.90943 -5.07746 
8 2 8.10363 8.64824 6.43964 -4.01114 
12 2 10.0487 7.98438 8.13084 -3.97098 
2 1 7.60939 10.3565 7.39641 -5.08576 
11 2 8.01021 9.06477 8.77186 -4.67839 
3 1 9.96486 9.07613 6.56959 -4.92028 
9 2 9.48457 10.5635 7.60479 -3.9587 
4 1 8.44764 7.05108 10.9549 -5.66149 
6 1 6.58377 8.98773 10.1297 -5.82674 
13 2 7.10152 7.11293 9.56889 -3.72614 
16 2 7.1117 7.97539 11.7431 -3.45807 
14 2 9.86 8.26821 11.0477 -3.25202 
7 1 7.89326 11.5962 10.2819 -5.08215 
15 2 8.18289 9.83737 10.9361 -3.80943 
10 2 6.61147 10.8496 9.08968 -3.68916 
5 1 9.69742 9.50045 9.54885 -6.76293 
17 2 9.63737 11.4504 9.72002 -3.37838 
