ITEM: TIMESTEP
1083
ITEM: NUMBER OF ATOMS
18
ITEM: BOX BOUNDS ff ff ff
0.0000000000000000e+00 1.8000000000000000e+01
0.0000000000000000e+00 1.8000000000000000e+01
0.0000000000000000e+00 1.8000000000000000e+01
ITEM: ATOMS id type x y z c_peatom 
1 1 7.75741 8.61979 6.00551 -4.70146 
4 1 7.65826 7.07029 8.31804 -4.51913 
11 2 6.46285 8.30062 7.38096 -3.93965 
9 2 8.85484 8.41376 7.73931 -4.22843 
6 1 10.5692 7.40947 7.84132 -5.55327 
8 2 11.5048 8.76832 7.50641 -3.05577 
16 2 5.82639 11.3407 8.03193 -2.70766 
2 1 6.99617 10.0943 8.22873 -7.65516 
10 2 8.93627 10.7178 8.24609 -3.45798 
13 2 7.62519 10.3543 6.39272 -3.57841 
17 2 8.05878 7.59548 10.1043 -4.31436 
5 1 9.46579 6.4352 10.3316 -3.89299 
15 2 10.641 7.70935 9.75209 -4.19025 
14 2 7.6293 10.5335 10.1235 -3.51491 
18 2 9.13187 9.44246 11.6215 -2.65625 
7 1 9.29323 9.30745 9.8979 -8.17613 
12 2 10.1057 11.1018 10.2459 -3.34774 
3 1 8.71077 12.0051 9.58275 -5.09568 
