LAMMPS (30 Nov 2020)
  using 1 OpenMP thread(s) per MPI task
Reading data file ...
  orthogonal box = (0.0000000 0.0000000 0.0000000) to (18.000000 18.000000 18.000000)
  1 by 1 by 2 MPI processor grid
  reading atoms ...
  17 atoms
  read_data CPU = 0.002 seconds
Reading tersoff/zbl potential file /sandbox/vkolluru/Fantastx/examples/TiO2_clusters/Ti-O.tersoff.zbl with DATE: 2018-05-16
WARNING: Using 'neigh_modify every 1 delay 0 check yes' setting during minimization (../min.cpp:188)
Neighbor list info ...
  update every 1 steps, delay 0 steps, check yes
  max neighbors/atom: 1000, page size: 100000
  master list distance cutoff = 5.35
  ghost atom cutoff = 5.35
  binsize = 2.675, bins = 7 7 7
  1 neighbor lists, perpetual/occasional/extra = 1 0 0
  (1) pair tersoff/zbl, perpetual
      attributes: full, newton on
      pair build: full/bin/atomonly
      stencil: full/bin/3d
      bin: standard
Setting up cg style minimization ...
  Unit style    : metal
  Current step  : 0
Per MPI rank memory allocation (min/avg/max) = 4.421 | 4.421 | 4.421 Mbytes
Step Temp E_pair E_mol TotEng Press 
       0            0   -20.748497            0   -20.748497    26384.396 
       1            0   -32.758369            0   -32.758369     20459.94 
Loop time of 0.000209924 on 2 procs for 1 steps with 17 atoms

44.8% CPU use with 2 MPI tasks x 1 OpenMP threads

Minimization stats:
  Stopping criterion = max force evaluations
  Energy initial, next-to-last, final = 
     -20.7484965346267  -20.7484965346267  -32.7583686598211
  Force two-norm initial, final = 95.435276 52.305089
  Force max component initial, final = 55.616543 27.456802
  Final line search alpha, max atom move = 0.0017980262 0.049368048
  Iterations, force evaluations = 1 1

MPI task timing breakdown:
Section |  min time  |  avg time  |  max time  |%varavg| %total
---------------------------------------------------------------
Pair    | 0.00011954 | 0.00013334 | 0.00014714 |   0.0 | 63.52
Neigh   | 0          | 0          | 0          |   0.0 |  0.00
Comm    | 1.0092e-05 | 2.3605e-05 | 3.7119e-05 |   0.0 | 11.24
Output  | 0          | 0          | 0          |   0.0 |  0.00
Modify  | 0          | 0          | 0          |   0.0 |  0.00
Other   |            | 5.298e-05  |            |       | 25.24

Nlocal:        8.50000 ave           9 max           8 min
Histogram: 1 0 0 0 0 0 0 0 0 1
Nghost:        8.50000 ave           9 max           8 min
Histogram: 1 0 0 0 0 0 0 0 0 1
Neighs:         0.00000 ave           0 max           0 min
Histogram: 2 0 0 0 0 0 0 0 0 0
FullNghs:      127.000 ave         133 max         121 min
Histogram: 1 0 0 0 0 0 0 0 0 1

Total # of neighbors = 254
Ave neighs/atom = 14.941176
Neighbor list builds = 0
Dangerous builds = 0
WARNING: Using 'neigh_modify every 1 delay 0 check yes' setting during minimization (../min.cpp:188)
Setting up cg style minimization ...
  Unit style    : metal
  Current step  : 1
Per MPI rank memory allocation (min/avg/max) = 4.421 | 4.421 | 4.421 Mbytes
Step Temp E_pair E_mol TotEng Press 
       1            0   -32.758369            0   -32.758369     20459.94 
     555            0    -72.78616            0    -72.78616   -13.981479 
Loop time of 0.146044 on 2 procs for 554 steps with 17 atoms

98.6% CPU use with 2 MPI tasks x 1 OpenMP threads

Minimization stats:
  Stopping criterion = max force evaluations
  Energy initial, next-to-last, final = 
     -32.7583686598211  -72.7861600459427  -72.7861600459427
  Force two-norm initial, final = 52.305089 0.54393667
  Force max component initial, final = 27.456802 0.30857512
  Final line search alpha, max atom move = 0.040508775 0.012500000
  Iterations, force evaluations = 554 3004

MPI task timing breakdown:
Section |  min time  |  avg time  |  max time  |%varavg| %total
---------------------------------------------------------------
Pair    | 0.086185   | 0.10905    | 0.13192    |   6.9 | 74.67
Neigh   | 1.1239e-05 | 1.1967e-05 | 1.2696e-05 |   0.0 |  0.01
Comm    | 0.007308   | 0.02984    | 0.052372   |  13.0 | 20.43
Output  | 0          | 0          | 0          |   0.0 |  0.00
Modify  | 0          | 0          | 0          |   0.0 |  0.00
Other   |            | 0.00714    |            |       |  4.89

Nlocal:        8.50000 ave           9 max           8 min
Histogram: 1 0 0 0 0 0 0 0 0 1
Nghost:        8.50000 ave           9 max           8 min
Histogram: 1 0 0 0 0 0 0 0 0 1
Neighs:         0.00000 ave           0 max           0 min
Histogram: 2 0 0 0 0 0 0 0 0 0
FullNghs:      113.000 ave         116 max         110 min
Histogram: 1 0 0 0 0 0 0 0 0 1

Total # of neighbors = 226
Ave neighs/atom = 13.294118
Neighbor list builds = 2
Dangerous builds = 0
WARNING: Using 'neigh_modify every 1 delay 0 check yes' setting during minimization (../min.cpp:188)
Setting up cg style minimization ...
  Unit style    : metal
  Current step  : 555
Per MPI rank memory allocation (min/avg/max) = 4.421 | 4.421 | 4.421 Mbytes
Step Temp E_pair E_mol TotEng Press 
     555            0    -72.78616            0    -72.78616   -13.981479 
    1055            0    -72.78616            0    -72.78616   -13.981479 
Loop time of 0.146919 on 2 procs for 500 steps with 17 atoms

98.9% CPU use with 2 MPI tasks x 1 OpenMP threads

Minimization stats:
  Stopping criterion = max force evaluations
  Energy initial, next-to-last, final = 
     -72.7861600459427  -72.7861600459427  -72.7861600459427
  Force two-norm initial, final = 0.54393667 0.54393667
  Force max component initial, final = 0.30857512 0.30857512
  Final line search alpha, max atom move = 0.040508775 0.012500000
  Iterations, force evaluations = 500 3000

MPI task timing breakdown:
Section |  min time  |  avg time  |  max time  |%varavg| %total
---------------------------------------------------------------
Pair    | 0.086673   | 0.10961    | 0.13254    |   6.9 | 74.60
Neigh   | 0          | 0          | 0          |   0.0 |  0.00
Comm    | 0.0060271  | 0.02867    | 0.051312   |  13.4 | 19.51
Output  | 0          | 0          | 0          |   0.0 |  0.00
Modify  | 0          | 0          | 0          |   0.0 |  0.00
Other   |            | 0.008642   |            |       |  5.88

Nlocal:        8.50000 ave           9 max           8 min
Histogram: 1 0 0 0 0 0 0 0 0 1
Nghost:        8.50000 ave           9 max           8 min
Histogram: 1 0 0 0 0 0 0 0 0 1
Neighs:         0.00000 ave           0 max           0 min
Histogram: 2 0 0 0 0 0 0 0 0 0
FullNghs:      116.000 ave         120 max         112 min
Histogram: 1 0 0 0 0 0 0 0 0 1

Total # of neighbors = 232
Ave neighs/atom = 13.647059
Neighbor list builds = 0
Dangerous builds = 0
Total wall time: 0:00:00
