ITEM: TIMESTEP
749
ITEM: NUMBER OF ATOMS
18
ITEM: BOX BOUNDS ff ff ff
0.0000000000000000e+00 1.8000000000000000e+01
0.0000000000000000e+00 1.8000000000000000e+01
0.0000000000000000e+00 1.8000000000000000e+01
ITEM: ATOMS id type x y z c_peatom 
11 2 8.9712 8.11126 6.40857 -3.16166 
4 1 8.91144 7.74412 8.28329 -6.2905 
1 1 7.81083 9.66664 6.37931 -6.12164 
13 2 7.14513 11.4387 7.05374 -3.66438 
18 2 7.54022 9.14452 8.18249 -3.60035 
17 2 10.196 9.0988 8.54616 -3.84766 
12 2 9.41568 10.601 6.47516 -3.82611 
3 1 8.75764 12.0655 7.2781 -4.49033 
9 2 6.6082 8.80768 11.7461 -2.93817 
14 2 8.2763 8.38808 10.2194 -3.69833 
5 1 9.50999 7.3266 11.2278 -4.9035 
10 2 10.9427 8.47207 11.2871 -3.84634 
2 1 11.4938 8.13003 9.56565 -4.9728 
8 2 10.2404 6.71064 9.57228 -4.00212 
6 1 6.83085 10.474 11.6767 -6.53204 
7 1 8.73479 10.2277 9.66669 -6.34149 
16 2 6.90143 10.6299 9.81733 -3.36356 
15 2 8.68772 10.487 11.5449 -3.34128 
