ITEM: TIMESTEP
471
ITEM: NUMBER OF ATOMS
18
ITEM: BOX BOUNDS ff ff ff
0.0000000000000000e+00 1.8000000000000000e+01
0.0000000000000000e+00 1.8000000000000000e+01
0.0000000000000000e+00 1.8000000000000000e+01
ITEM: ATOMS id type x y z c_peatom 
18 2 7.47551 6.73556 8.42017 -2.78474 
12 2 8.3112 8.876 8.54814 -4.00793 
16 2 9.71289 6.83645 6.97789 -3.40965 
4 1 11.0887 8.04183 6.98069 -5.37597 
2 1 9.12399 7.00083 8.79055 -7.07721 
15 2 10.7625 8.40048 8.80206 -3.69595 
11 2 5.56599 9.94576 8.41376 -3.31568 
7 1 7.01754 10.2632 7.69333 -5.21437 
13 2 10.0319 9.47313 6.60874 -3.42764 
3 1 9.84087 10.0812 8.45268 -6.09287 
1 1 8.15601 6.68103 11.644 -4.21854 
14 2 6.84758 7.76039 11.2469 -3.74349 
10 2 9.32411 7.77639 10.7489 -3.91244 
9 2 7.97322 10.7309 11.7989 -3.53678 
5 1 7.98178 9.22708 10.5214 -6.85006 
17 2 8.14358 11.0452 9.27011 -3.68021 
8 2 9.89702 9.98897 10.4926 -3.72161 
6 1 9.15802 11.6815 10.8657 -4.81443 
