ITEM: TIMESTEP
918
ITEM: NUMBER OF ATOMS
18
ITEM: BOX BOUNDS ff ff ff
0.0000000000000000e+00 1.8000000000000000e+01
0.0000000000000000e+00 1.8000000000000000e+01
0.0000000000000000e+00 1.8000000000000000e+01
ITEM: ATOMS id type x y z c_peatom 
5 1 8.73505 9.4895 5.29952 -4.51134 
1 1 7.78802 7.69445 7.37141 -6.18787 
9 2 8.20301 6.12036 7.90513 -2.83728 
10 2 8.99561 8.66832 8.55835 -4.09958 
8 2 9.23621 7.8103 6.10566 -4.23891 
4 1 10.5641 8.36531 7.39498 -5.23042 
11 2 10.8488 6.59779 7.92564 -3.24519 
2 1 8.70924 10.5411 7.88496 -5.01749 
15 2 7.47854 9.76298 6.66227 -4.08809 
12 2 10.0789 10.3052 6.48977 -5.65718 
3 1 10.6817 11.9246 6.38669 -2.56306 
13 2 9.37036 5.99384 10.1776 -2.82577 
16 2 7.89962 8.69715 11.9034 -3.36491 
6 1 10.8625 6.7081 9.86818 -7.21088 
17 2 10.5724 8.17815 10.6805 -2.74725 
7 1 7.40536 9.0328 10.3797 -5.21585 
14 2 8.74941 10.3842 10.1256 -3.10684 
18 2 10.0385 10.9565 10.8718 -0.870487 
