 145 145   0   0
  0.1407148E+02  0.8428300E-09  0.1459820E-08  0.1658321E-08  0.5000000E-15
  1.000000000000000E-004
  CAR 
 Al_Al2O3                                
     11.96686279    -20.22563633  301      6.68336535      1.00000000
    -20.226  0.0000E+00  0.0000E+00
    -20.118  0.0000E+00  0.0000E+00
    -20.011  0.0000E+00  0.0000E+00
    -19.904  0.0000E+00  0.0000E+00
    -19.796  0.0000E+00  0.0000E+00
    -19.689  0.0000E+00  0.0000E+00
    -19.582 -0.2944E-29 -0.3159E-30
    -19.474 -0.3516E-22 -0.3773E-23
    -19.367 -0.4102E-16 -0.4402E-17
    -19.260 -0.4450E-11 -0.4775E-12
    -19.153 -0.4670E-07 -0.5011E-08
    -19.045 -0.4370E-04 -0.4694E-05
    -18.938 -0.2969E-02 -0.3233E-03
    -18.831  0.1160E-01  0.9219E-03
    -18.723  0.1412E+00  0.1607E-01
    -18.616  0.4204E-01  0.2059E-01
    -18.509 -0.5272E-02  0.2002E-01
    -18.401 -0.1831E-03  0.2000E-01
    -18.294 -0.3872E-06  0.2000E-01
    -18.187 -0.7090E-10  0.2000E-01
    -18.079 -0.1200E-14  0.2000E-01
    -17.972  0.0000E+00  0.2000E-01
    -17.865  0.0000E+00  0.2000E-01
    -17.758  0.0000E+00  0.2000E-01
    -17.650  0.0000E+00  0.2000E-01
    -17.543  0.0000E+00  0.2000E-01
    -17.436  0.0000E+00  0.2000E-01
    -17.328  0.0000E+00  0.2000E-01
    -17.221  0.0000E+00  0.2000E-01
    -17.114  0.0000E+00  0.2000E-01
    -17.006  0.0000E+00  0.2000E-01
    -16.899  0.0000E+00  0.2000E-01
    -16.792  0.0000E+00  0.2000E-01
    -16.684  0.0000E+00  0.2000E-01
    -16.577  0.0000E+00  0.2000E-01
    -16.470  0.0000E+00  0.2000E-01
    -16.363 -0.6883E-34  0.2000E-01
    -16.255 -0.2954E-26  0.2000E-01
    -16.148 -0.1243E-19  0.2000E-01
    -16.041 -0.4928E-14  0.2000E-01
    -15.933 -0.1908E-09  0.2000E-01
    -15.826 -0.6835E-06  0.2000E-01
    -15.719 -0.2068E-03  0.1998E-01
    -15.611 -0.3069E-02  0.1965E-01
    -15.504  0.3358E-01  0.2325E-01
    -15.397  0.5919E-01  0.2960E-01
    -15.289  0.6438E-01  0.3651E-01
    -15.182  0.1851E+00  0.5637E-01
    -15.075  0.1458E+00  0.7201E-01
    -14.968  0.1619E+00  0.8938E-01
    -14.860  0.1876E+00  0.1095E+00
    -14.753  0.9494E-01  0.1197E+00
    -14.646  0.6909E-01  0.1271E+00
    -14.538  0.1862E+00  0.1471E+00
    -14.431  0.1991E+00  0.1685E+00
    -14.324  0.3668E+00  0.2078E+00
    -14.216  0.2302E+00  0.2325E+00
    -14.109  0.2425E+00  0.2585E+00
    -14.002  0.2221E+00  0.2824E+00
    -13.894  0.3425E+00  0.3191E+00
    -13.787  0.6153E+00  0.3852E+00
    -13.680  0.6957E+00  0.4598E+00
    -13.573  0.5464E+00  0.5184E+00
    -13.465  0.4810E+00  0.5701E+00
    -13.358  0.4035E+00  0.6134E+00
    -13.251  0.2758E+00  0.6430E+00
    -13.143  0.2775E+00  0.6727E+00
    -13.036  0.2500E+00  0.6996E+00
    -12.929  0.4230E+00  0.7450E+00
    -12.821  0.2264E+00  0.7692E+00
    -12.714  0.1734E+00  0.7879E+00
    -12.607  0.3835E+00  0.8290E+00
    -12.499  0.1131E+00  0.8412E+00
    -12.392 -0.1027E-01  0.8401E+00
    -12.285  0.1259E+00  0.8536E+00
    -12.178  0.1685E+00  0.8716E+00
    -12.070  0.8434E-01  0.8807E+00
    -11.963 -0.1092E-01  0.8795E+00
    -11.856  0.3755E-01  0.8835E+00
    -11.748  0.1423E+00  0.8988E+00
    -11.641  0.8008E-02  0.8997E+00
    -11.534  0.5401E-01  0.9055E+00
    -11.426  0.1294E+00  0.9194E+00
    -11.319  0.2450E-01  0.9220E+00
    -11.212  0.1415E+00  0.9372E+00
    -11.104  0.2600E-01  0.9400E+00
    -10.997  0.1025E+00  0.9510E+00
    -10.890  0.9057E-01  0.9607E+00
    -10.783 -0.5575E-02  0.9601E+00
    -10.675 -0.7316E-03  0.9600E+00
    -10.568 -0.3439E-05  0.9600E+00
    -10.461 -0.1332E-08  0.9600E+00
    -10.353 -0.7828E-09  0.9600E+00
    -10.246 -0.2326E-05  0.9600E+00
    -10.139 -0.5761E-03  0.9599E+00
    -10.031 -0.5996E-02  0.9593E+00
     -9.924  0.8120E-01  0.9680E+00
     -9.817  0.1154E+00  0.9804E+00
     -9.709 -0.2314E-02  0.9801E+00
     -9.602 -0.1352E-02  0.9800E+00
     -9.495 -0.9807E-05  0.9800E+00
     -9.387 -0.5641E-08  0.9800E+00
     -9.280 -0.2951E-12  0.9800E+00
     -9.173  0.0000E+00  0.9800E+00
     -9.066 -0.4503E-35  0.9800E+00
     -8.958 -0.2936E-27  0.9800E+00
     -8.851 -0.1878E-20  0.9800E+00
     -8.744 -0.1135E-14  0.9800E+00
     -8.636 -0.6740E-10  0.9800E+00
     -8.529 -0.3725E-06  0.9800E+00
     -8.422 -0.1785E-03  0.9800E+00
     -8.314 -0.5231E-02  0.9794E+00
     -8.207  0.4130E-01  0.9839E+00
     -8.100  0.1415E+00  0.9990E+00
     -7.992  0.1204E-01  0.1000E+01
     -7.885 -0.3011E-02  0.1000E+01
     -7.778 -0.4504E-04  0.1000E+01
     -7.671 -0.4879E-07  0.1000E+01
     -7.563 -0.4712E-11  0.1000E+01
     -7.456 -0.4138E-16  0.1000E+01
     -7.349  0.0000E+00  0.1000E+01
     -7.241  0.0000E+00  0.1000E+01
     -7.134  0.0000E+00  0.1000E+01
     -7.027  0.0000E+00  0.1000E+01
     -6.919  0.0000E+00  0.1000E+01
     -6.812  0.0000E+00  0.1000E+01
     -6.705  0.0000E+00  0.1000E+01
     -6.597  0.0000E+00  0.1000E+01
     -6.490  0.0000E+00  0.1000E+01
     -6.383  0.0000E+00  0.1000E+01
     -6.276  0.0000E+00  0.1000E+01
     -6.168  0.0000E+00  0.1000E+01
     -6.061  0.0000E+00  0.1000E+01
     -5.954  0.0000E+00  0.1000E+01
     -5.846  0.0000E+00  0.1000E+01
     -5.739  0.0000E+00  0.1000E+01
     -5.632  0.0000E+00  0.1000E+01
     -5.524  0.0000E+00  0.1000E+01
     -5.417  0.0000E+00  0.1000E+01
     -5.310  0.0000E+00  0.1000E+01
     -5.202  0.0000E+00  0.1000E+01
     -5.095 -0.1327E-35  0.1000E+01
     -4.988 -0.9230E-28  0.1000E+01
     -4.881 -0.6298E-21  0.1000E+01
     -4.773 -0.4087E-15  0.1000E+01
     -4.666 -0.2573E-10  0.1000E+01
     -4.559 -0.1519E-06  0.1000E+01
     -4.451 -0.7800E-04  0.1000E+01
     -4.344 -0.2508E-02  0.9997E+00
     -4.237  0.1880E-01  0.1002E+01
     -4.129  0.7143E-01  0.1009E+01
     -4.022  0.7182E-02  0.1010E+01
     -3.915 -0.2268E-02  0.1010E+01
     -3.807 -0.5766E-02  0.1009E+01
     -3.700  0.8230E-01  0.1018E+01
     -3.593  0.1212E+00  0.1031E+01
     -3.486  0.1364E+00  0.1046E+01
     -3.378  0.4438E-01  0.1051E+01
     -3.271 -0.1045E-01  0.1049E+01
     -3.164  0.3685E-01  0.1053E+01
     -3.056  0.3445E+00  0.1090E+01
     -2.949  0.5375E+00  0.1148E+01
     -2.842  0.3980E+00  0.1191E+01
     -2.734  0.3368E+00  0.1227E+01
     -2.627  0.1166E+00  0.1239E+01
     -2.520  0.9348E-01  0.1249E+01
     -2.412  0.3796E+00  0.1290E+01
     -2.305  0.6123E+00  0.1356E+01
     -2.198  0.5391E+00  0.1414E+01
     -2.091  0.4787E+00  0.1465E+01
     -1.983  0.5792E+00  0.1527E+01
     -1.876  0.3072E+00  0.1560E+01
     -1.769  0.1946E+00  0.1581E+01
     -1.661  0.4416E+00  0.1628E+01
     -1.554  0.6460E+00  0.1698E+01
     -1.447  0.5518E+00  0.1757E+01
     -1.339  0.4565E+00  0.1806E+01
     -1.232  0.4547E+00  0.1855E+01
     -1.125  0.5207E+00  0.1911E+01
     -1.017  0.5327E+00  0.1968E+01
     -0.910  0.5407E+00  0.2026E+01
     -0.803  0.5117E+00  0.2081E+01
     -0.696  0.3222E+00  0.2115E+01
     -0.588  0.3041E+00  0.2148E+01
     -0.481  0.4135E+00  0.2192E+01
     -0.374  0.4766E+00  0.2243E+01
     -0.266  0.5713E+00  0.2305E+01
     -0.159  0.4633E+00  0.2354E+01
     -0.052  0.4538E+00  0.2403E+01
      0.056  0.5612E+00  0.2463E+01
      0.163  0.4952E+00  0.2517E+01
      0.270  0.5798E+00  0.2579E+01
      0.378  0.6688E+00  0.2650E+01
      0.485  0.6133E+00  0.2716E+01
      0.592  0.6767E+00  0.2789E+01
      0.699  0.6658E+00  0.2860E+01
      0.807  0.6898E+00  0.2934E+01
      0.914  0.8456E+00  0.3025E+01
      1.021  0.7675E+00  0.3107E+01
      1.129  0.6687E+00  0.3179E+01
      1.236  0.8179E+00  0.3267E+01
      1.343  0.8034E+00  0.3353E+01
      1.451  0.6560E+00  0.3424E+01
      1.558  0.6782E+00  0.3496E+01
      1.665  0.6344E+00  0.3564E+01
      1.773  0.6920E+00  0.3639E+01
      1.880  0.6611E+00  0.3710E+01
      1.987  0.6959E+00  0.3784E+01
      2.094  0.6836E+00  0.3858E+01
      2.202  0.5995E+00  0.3922E+01
      2.309  0.6228E+00  0.3989E+01
      2.416  0.7916E+00  0.4074E+01
      2.524  0.7501E+00  0.4154E+01
      2.631  0.5719E+00  0.4216E+01
      2.738  0.6402E+00  0.4284E+01
      2.846  0.6447E+00  0.4354E+01
      2.953  0.5486E+00  0.4412E+01
      3.060  0.5947E+00  0.4476E+01
      3.168  0.7342E+00  0.4555E+01
      3.275  0.6480E+00  0.4625E+01
      3.382  0.4945E+00  0.4678E+01
      3.490  0.3525E+00  0.4715E+01
      3.597  0.2804E+00  0.4746E+01
      3.704  0.3701E+00  0.4785E+01
      3.811  0.4698E+00  0.4836E+01
      3.919  0.5080E+00  0.4890E+01
      4.026  0.3745E+00  0.4930E+01
      4.133  0.4050E+00  0.4974E+01
      4.241  0.3926E+00  0.5016E+01
      4.348  0.3988E+00  0.5059E+01
      4.455  0.3892E+00  0.5101E+01
      4.563  0.3790E+00  0.5141E+01
      4.670  0.3650E+00  0.5180E+01
      4.777  0.3874E+00  0.5222E+01
      4.885  0.2646E+00  0.5250E+01
      4.992  0.2552E+00  0.5278E+01
      5.099  0.3143E+00  0.5311E+01
      5.206  0.2681E+00  0.5340E+01
      5.314  0.2904E+00  0.5371E+01
      5.421  0.2481E+00  0.5398E+01
      5.528  0.1997E+00  0.5419E+01
      5.636  0.3255E+00  0.5454E+01
      5.743  0.4293E+00  0.5500E+01
      5.850  0.2553E+00  0.5528E+01
      5.958  0.3175E+00  0.5562E+01
      6.065  0.3302E+00  0.5597E+01
      6.172  0.4748E+00  0.5648E+01
      6.280  0.4240E+00  0.5694E+01
      6.387  0.3550E+00  0.5732E+01
      6.494  0.3758E+00  0.5772E+01
      6.601  0.4724E+00  0.5823E+01
      6.709  0.3144E+00  0.5857E+01
      6.816  0.2406E+00  0.5882E+01
      6.923  0.3964E+00  0.5925E+01
      7.031  0.4776E+00  0.5976E+01
      7.138  0.3587E+00  0.6015E+01
      7.245  0.2749E+00  0.6044E+01
      7.353  0.2228E+00  0.6068E+01
      7.460  0.2723E+00  0.6097E+01
      7.567  0.3474E+00  0.6135E+01
      7.675  0.3111E+00  0.6168E+01
      7.782  0.2701E+00  0.6197E+01
      7.889  0.4195E+00  0.6242E+01
      7.996  0.3621E+00  0.6281E+01
      8.104  0.4185E+00  0.6326E+01
      8.211  0.4103E+00  0.6370E+01
      8.318  0.3758E+00  0.6410E+01
      8.426  0.4625E+00  0.6460E+01
      8.533  0.5118E+00  0.6515E+01
      8.640  0.4139E+00  0.6559E+01
      8.748  0.3689E+00  0.6599E+01
      8.855  0.3261E+00  0.6634E+01
      8.962  0.3319E+00  0.6669E+01
      9.070  0.3768E+00  0.6710E+01
      9.177  0.3457E+00  0.6747E+01
      9.284  0.3279E+00  0.6782E+01
      9.391  0.3047E+00  0.6815E+01
      9.499  0.3434E+00  0.6852E+01
      9.606  0.4016E+00  0.6895E+01
      9.713  0.5364E+00  0.6952E+01
      9.821  0.4385E+00  0.6999E+01
      9.928  0.5442E+00  0.7058E+01
     10.035  0.7262E+00  0.7136E+01
     10.143  0.5355E+00  0.7193E+01
     10.250  0.5077E+00  0.7248E+01
     10.357  0.5598E+00  0.7308E+01
     10.465  0.3132E+00  0.7341E+01
     10.572  0.1760E+00  0.7360E+01
     10.679  0.1992E-02  0.7360E+01
     10.786 -0.2945E-02  0.7360E+01
     10.894 -0.3567E-04  0.7360E+01
     11.001 -0.3445E-07  0.7360E+01
     11.108 -0.3054E-11  0.7360E+01
     11.216 -0.2069E-16  0.7360E+01
     11.323  0.0000E+00  0.7360E+01
     11.430  0.0000E+00  0.7360E+01
     11.538  0.0000E+00  0.7360E+01
     11.645  0.0000E+00  0.7360E+01
     11.752  0.0000E+00  0.7360E+01
     11.860  0.0000E+00  0.7360E+01
     11.967  0.0000E+00  0.7360E+01
