       N       E                     dE             d eps       ncg     rms          rms(c)
DAV:   1     0.266418375539E+04    0.26642E+04   -0.22112E+05  1472   0.112E+03
DAV:   2    -0.436982171642E+03   -0.31012E+04   -0.29176E+04  1928   0.243E+02
DAV:   3    -0.804709415161E+03   -0.36773E+03   -0.36313E+03  1704   0.902E+01
DAV:   4    -0.814013867239E+03   -0.93045E+01   -0.92293E+01  1760   0.148E+01
DAV:   5    -0.814280386449E+03   -0.26652E+00   -0.26599E+00  1896   0.232E+00    0.522E+01
RMM:   6    -0.746683115833E+03    0.67597E+02   -0.37577E+02  1490   0.245E+01    0.364E+01
RMM:   7    -0.754776879778E+03   -0.80938E+01   -0.85445E+01  1514   0.975E+00    0.225E+01
RMM:   8    -0.740193122530E+03    0.14584E+02   -0.72381E+00  1489   0.277E+00    0.156E+01
RMM:   9    -0.735956049229E+03    0.42371E+01   -0.70811E+00  1492   0.246E+00    0.942E+00
RMM:  10    -0.738703701878E+03   -0.27477E+01   -0.79148E+00  1491   0.252E+00    0.259E+01
RMM:  11    -0.735320358222E+03    0.33833E+01   -0.21963E+00  1494   0.127E+00    0.150E+01
RMM:  12    -0.734384262130E+03    0.93610E+00   -0.28831E+00  1481   0.147E+00    0.534E+00
RMM:  13    -0.734167338232E+03    0.21692E+00   -0.86008E-01  1479   0.815E-01    0.354E+00
RMM:  14    -0.734178719861E+03   -0.11382E-01   -0.27395E-01  1499   0.490E-01    0.393E+00
RMM:  15    -0.733996215142E+03    0.18250E+00   -0.70412E-02  1462   0.265E-01    0.287E+00
RMM:  16    -0.733885759643E+03    0.11046E+00   -0.66031E-02  1404   0.209E-01    0.155E+00
RMM:  17    -0.733872540851E+03    0.13219E-01   -0.14139E-02  1191   0.919E-02    0.114E+00
RMM:  18    -0.733872066718E+03    0.47413E-03   -0.28190E-03   945   0.517E-02
   1 F= -.73387207E+03 E0= -.73387353E+03  d E =-.733872E+03
       N       E                     dE             d eps       ncg     rms          rms(c)
DAV:   1    -0.751619433569E+03   -0.17747E+02   -0.71684E+02  1480   0.397E+01    0.100E+01
RMM:   2    -0.755204235225E+03   -0.35848E+01   -0.65497E+01  1474   0.964E+00    0.754E+00
RMM:   3    -0.754571189777E+03    0.63305E+00   -0.43434E+00  1585   0.192E+00    0.656E+00
RMM:   4    -0.754340517913E+03    0.23067E+00   -0.12843E+00  1529   0.112E+00    0.446E+00
RMM:   5    -0.754214099128E+03    0.12642E+00   -0.61228E-01  1502   0.847E-01    0.248E+00
RMM:   6    -0.754221207496E+03   -0.71084E-02   -0.23341E-01  1476   0.518E-01    0.137E+00
RMM:   7    -0.754252968522E+03   -0.31761E-01   -0.10217E-01  1415   0.297E-01    0.182E+00
RMM:   8    -0.754248744768E+03    0.42238E-02   -0.51006E-02  1383   0.210E-01    0.979E-01
RMM:   9    -0.754248520086E+03    0.22468E-03   -0.14046E-02  1249   0.136E-01    0.323E-01
RMM:  10    -0.754250256853E+03   -0.17368E-02   -0.42048E-03  1023   0.687E-02    0.168E-01
RMM:  11    -0.754251593147E+03   -0.13363E-02   -0.17200E-03   920   0.488E-02    0.880E-02
RMM:  12    -0.754252361420E+03   -0.76827E-03   -0.77701E-04   827   0.332E-02
   2 F= -.75425236E+03 E0= -.75424702E+03  d E =-.203803E+02
       N       E                     dE             d eps       ncg     rms          rms(c)
DAV:   1    -0.757039823533E+03   -0.27882E+01   -0.23726E+01  1592   0.682E+00    0.195E+00
RMM:   2    -0.757059125454E+03   -0.19302E-01   -0.10336E+00  1482   0.131E+00    0.156E+00
RMM:   3    -0.757034877607E+03    0.24248E-01   -0.10416E-01  1457   0.331E-01    0.142E+00
RMM:   4    -0.757023057397E+03    0.11820E-01   -0.65671E-02  1392   0.224E-01    0.117E+00
RMM:   5    -0.757010497971E+03    0.12559E-01   -0.26792E-02  1317   0.153E-01    0.535E-01
RMM:   6    -0.757009782284E+03    0.71569E-03   -0.98616E-03  1089   0.958E-02
   3 F= -.75700978E+03 E0= -.75700526E+03  d E =-.231377E+02
       N       E                     dE             d eps       ncg     rms          rms(c)
DAV:   1    -0.757591426360E+03   -0.58093E+00   -0.46510E+00  1544   0.311E+00    0.973E-01
RMM:   2    -0.757594613200E+03   -0.31868E-02   -0.21958E-01  1476   0.617E-01    0.703E-01
RMM:   3    -0.757590500434E+03    0.41128E-02   -0.24268E-02  1380   0.160E-01    0.631E-01
RMM:   4    -0.757587900905E+03    0.25995E-02   -0.11546E-02  1103   0.103E-01    0.491E-01
RMM:   5    -0.757586894230E+03    0.10067E-02   -0.59971E-03   984   0.712E-02    0.351E-01
RMM:   6    -0.757586214309E+03    0.67992E-03   -0.21515E-03   926   0.501E-02
   4 F= -.75758621E+03 E0= -.75758164E+03  d E =-.237141E+02
       N       E                     dE             d eps       ncg     rms          rms(c)
DAV:   1    -0.757833360968E+03   -0.24647E+00   -0.53921E+00  1512   0.338E+00    0.108E+00
RMM:   2    -0.757836302010E+03   -0.29410E-02   -0.27112E-01  1472   0.689E-01    0.918E-01
RMM:   3    -0.757830367856E+03    0.59342E-02   -0.35654E-02  1419   0.196E-01    0.809E-01
RMM:   4    -0.757824531113E+03    0.58367E-02   -0.12257E-02  1244   0.123E-01    0.387E-01
RMM:   5    -0.757824648657E+03   -0.11754E-03   -0.57449E-03  1028   0.767E-02
   5 F= -.75782465E+03 E0= -.75781955E+03  d E =-.239526E+02
       N       E                     dE             d eps       ncg     rms          rms(c)
DAV:   1    -0.758191168958E+03   -0.36664E+00   -0.53924E+02  1480   0.338E+01    0.618E+00
RMM:   2    -0.760748280329E+03   -0.25571E+01   -0.31124E+01  1495   0.598E+00    0.456E+00
RMM:   3    -0.760237435132E+03    0.51085E+00   -0.85110E-01  1537   0.956E-01    0.277E+00
RMM:   4    -0.760190695393E+03    0.46740E-01   -0.23933E-01  1488   0.487E-01    0.256E+00
RMM:   5    -0.760121170212E+03    0.69525E-01   -0.24846E-01  1475   0.508E-01    0.149E+00
RMM:   6    -0.760109902031E+03    0.11268E-01   -0.81909E-02  1385   0.245E-01    0.119E+00
RMM:   7    -0.760102999932E+03    0.69021E-02   -0.40281E-02  1352   0.189E-01    0.825E-01
RMM:   8    -0.760096666861E+03    0.63331E-02   -0.14977E-02  1298   0.131E-01    0.307E-01
RMM:   9    -0.760095748977E+03    0.91788E-03   -0.20852E-03   948   0.548E-02
   6 F= -.76009575E+03 E0= -.76009255E+03  d E =-.227110E+01
       N       E                     dE             d eps       ncg     rms          rms(c)
DAV:   1    -0.760133431930E+03   -0.36765E-01   -0.26018E+01  1512   0.752E+00    0.114E+00
RMM:   2    -0.760206637603E+03   -0.73206E-01   -0.87597E-01  1497   0.105E+00    0.775E-01
RMM:   3    -0.760195372240E+03    0.11265E-01   -0.31517E-02  1378   0.188E-01    0.696E-01
RMM:   4    -0.760192017779E+03    0.33545E-02   -0.11867E-02  1111   0.100E-01    0.502E-01
RMM:   5    -0.760189918832E+03    0.20989E-02   -0.49036E-03  1025   0.742E-02    0.253E-01
RMM:   6    -0.760189684603E+03    0.23423E-03   -0.24758E-03   927   0.547E-02
   7 F= -.76018968E+03 E0= -.76018562E+03  d E =-.236504E+01
       N       E                     dE             d eps       ncg     rms          rms(c)
DAV:   1    -0.760810351423E+03   -0.62043E+00   -0.30107E+02  1480   0.265E+01    0.439E+00
RMM:   2    -0.762064809171E+03   -0.12545E+01   -0.14802E+01  1495   0.462E+00    0.360E+00
RMM:   3    -0.761860611717E+03    0.20420E+00   -0.48241E-01  1531   0.806E-01    0.282E+00
RMM:   4    -0.761843616312E+03    0.16995E-01   -0.22082E-01  1475   0.504E-01    0.257E+00
RMM:   5    -0.761798461251E+03    0.45155E-01   -0.14359E-01  1465   0.455E-01    0.138E+00
RMM:   6    -0.761793957332E+03    0.45039E-02   -0.59223E-02  1352   0.209E-01    0.125E+00
RMM:   7    -0.761782030524E+03    0.11927E-01   -0.22224E-02  1323   0.143E-01    0.426E-01
RMM:   8    -0.761779754304E+03    0.22762E-02   -0.57633E-03  1170   0.849E-02    0.219E-01
RMM:   9    -0.761779190961E+03    0.56334E-03   -0.93759E-04   842   0.405E-02
   8 F= -.76177919E+03 E0= -.76177413E+03  d E =-.158951E+01
       N       E                     dE             d eps       ncg     rms          rms(c)
DAV:   1    -0.761917324476E+03   -0.13757E+00   -0.15810E+01  1504   0.640E+00    0.110E+00
RMM:   2    -0.761952294061E+03   -0.34970E-01   -0.53673E-01  1500   0.973E-01    0.775E-01
RMM:   3    -0.761945099762E+03    0.71943E-02   -0.29459E-02  1398   0.189E-01    0.810E-01
RMM:   4    -0.761940216272E+03    0.48835E-02   -0.14053E-02  1172   0.112E-01    0.475E-01
RMM:   5    -0.761938663685E+03    0.15526E-02   -0.47901E-03  1065   0.843E-02    0.230E-01
RMM:   6    -0.761939010665E+03   -0.34698E-03   -0.21322E-03   885   0.502E-02
   9 F= -.76193901E+03 E0= -.76193427E+03  d E =-.174933E+01
       N       E                     dE             d eps       ncg     rms          rms(c)
DAV:   1    -0.762445828488E+03   -0.50716E+00   -0.14468E+02  1472   0.178E+01    0.242E+00
RMM:   2    -0.762959202158E+03   -0.51337E+00   -0.56789E+00  1518   0.276E+00    0.193E+00
RMM:   3    -0.762918268913E+03    0.40933E-01   -0.14889E-01  1519   0.437E-01    0.188E+00
RMM:   4    -0.762896303464E+03    0.21965E-01   -0.48900E-02  1392   0.238E-01    0.146E+00
RMM:   5    -0.762893907907E+03    0.23956E-02   -0.48576E-02  1403   0.255E-01    0.136E+00
RMM:   6    -0.762878279798E+03    0.15628E-01   -0.23825E-02  1223   0.140E-01    0.436E-01
RMM:   7    -0.762878134323E+03    0.14547E-03   -0.54690E-03  1092   0.827E-02
  10 F= -.76287813E+03 E0= -.76287234E+03  d E =-.939124E+00
       N       E                     dE             d eps       ncg     rms          rms(c)
DAV:   1    -0.762885979259E+03   -0.76995E-02   -0.31934E+01  1472   0.843E+00    0.110E+00
RMM:   2    -0.762963221115E+03   -0.77242E-01   -0.90140E-01  1533   0.118E+00    0.794E-01
RMM:   3    -0.762954751966E+03    0.84691E-02   -0.32820E-02  1398   0.197E-01    0.808E-01
RMM:   4    -0.762949615874E+03    0.51361E-02   -0.12619E-02  1159   0.113E-01    0.559E-01
RMM:   5    -0.762952399356E+03   -0.27835E-02   -0.86489E-03  1177   0.102E-01    0.841E-01
RMM:   6    -0.762946747900E+03    0.56515E-02   -0.49968E-03  1032   0.793E-02    0.174E-01
RMM:   7    -0.762946974786E+03   -0.22689E-03   -0.88919E-04   827   0.417E-02
  11 F= -.76294697E+03 E0= -.76294069E+03  d E =-.100796E+01
       N       E                     dE             d eps       ncg     rms          rms(c)
DAV:   1    -0.763096919721E+03   -0.15017E+00   -0.13903E+02  1480   0.172E+01    0.252E+00
RMM:   2    -0.763444947105E+03   -0.34803E+00   -0.41190E+00  1521   0.235E+00    0.159E+00
RMM:   3    -0.763439195099E+03    0.57520E-02   -0.18922E-01  1470   0.446E-01    0.303E+00
RMM:   4    -0.763380322943E+03    0.58872E-01   -0.56105E-02  1388   0.258E-01    0.151E+00
RMM:   5    -0.763371666316E+03    0.86566E-02   -0.40904E-02  1315   0.191E-01    0.987E-01
RMM:   6    -0.763361453302E+03    0.10213E-01   -0.17965E-02  1309   0.154E-01    0.216E-01
RMM:   7    -0.763361166109E+03    0.28719E-03   -0.29745E-03  1015   0.626E-02
  12 F= -.76336117E+03 E0= -.76335413E+03  d E =-.414191E+00
       N       E                     dE             d eps       ncg     rms          rms(c)
DAV:   1    -0.763362924428E+03   -0.14711E-02   -0.56188E-01  1568   0.112E+00    0.173E-01
RMM:   2    -0.763364080022E+03   -0.11556E-02   -0.14866E-02  1185   0.148E-01    0.106E-01
RMM:   3    -0.763364177465E+03   -0.97443E-04   -0.64243E-04   779   0.322E-02
  13 F= -.76336418E+03 E0= -.76335695E+03  d E =-.417203E+00
       N       E                     dE             d eps       ncg     rms          rms(c)
DAV:   1    -0.763712941725E+03   -0.34886E+00   -0.46943E+01  1472   0.110E+01    0.144E+00
RMM:   2    -0.763810792636E+03   -0.97851E-01   -0.10980E+00  1505   0.138E+00    0.104E+00
RMM:   3    -0.763833932493E+03   -0.23140E-01   -0.57532E-02  1434   0.257E-01    0.266E+00
RMM:   4    -0.763790192857E+03    0.43740E-01   -0.20856E-02  1329   0.176E-01    0.572E-01
RMM:   5    -0.763796850863E+03   -0.66580E-02   -0.12283E-02  1034   0.114E-01    0.639E-01
RMM:   6    -0.763794469727E+03    0.23811E-02   -0.59288E-03  1034   0.774E-02    0.206E-01
RMM:   7    -0.763794274083E+03    0.19564E-03   -0.10624E-03   826   0.439E-02
  14 F= -.76379427E+03 E0= -.76378673E+03  d E =-.430097E+00
       N       E                     dE             d eps       ncg     rms          rms(c)
DAV:   1    -0.762979532518E+03    0.81494E+00   -0.41396E+02  1472   0.328E+01    0.462E+00
RMM:   2    -0.764434555172E+03   -0.14550E+01   -0.15277E+01  1486   0.483E+00    0.381E+00
RMM:   3    -0.764499097633E+03   -0.64542E-01   -0.61861E-01  1520   0.846E-01    0.545E+00
RMM:   4    -0.764219423014E+03    0.27967E+00   -0.18694E-01  1440   0.508E-01    0.151E+00
RMM:   5    -0.764239096603E+03   -0.19674E-01   -0.10162E-01  1422   0.345E-01    0.149E+00
RMM:   6    -0.764234824184E+03    0.42724E-02   -0.61664E-02  1318   0.193E-01    0.106E+00
RMM:   7    -0.764225058773E+03    0.97654E-02   -0.19908E-02  1287   0.150E-01    0.302E-01
RMM:   8    -0.764225264293E+03   -0.20552E-03   -0.37005E-03  1032   0.711E-02
  15 F= -.76422526E+03 E0= -.76421634E+03  d E =-.861087E+00
       N       E                     dE             d eps       ncg     rms          rms(c)
DAV:   1    -0.764210524372E+03    0.14534E-01   -0.29498E+01  1472   0.869E+00    0.124E+00
RMM:   2    -0.764282057196E+03   -0.71533E-01   -0.78758E-01  1500   0.111E+00    0.117E+00
RMM:   3    -0.764294351372E+03   -0.12294E-01   -0.48193E-02  1434   0.231E-01    0.197E+00
RMM:   4    -0.764264101666E+03    0.30250E-01   -0.15390E-02  1303   0.158E-01    0.371E-01
RMM:   5    -0.764267956880E+03   -0.38552E-02   -0.74302E-03  1114   0.950E-02    0.445E-01
RMM:   6    -0.764266159364E+03    0.17975E-02   -0.45302E-03   920   0.611E-02    0.233E-01
RMM:   7    -0.764265892331E+03    0.26703E-03   -0.98236E-04   801   0.368E-02
  16 F= -.76426589E+03 E0= -.76425727E+03  d E =-.901715E+00
       N       E                     dE             d eps       ncg     rms          rms(c)
DAV:   1    -0.764310299749E+03   -0.44140E-01   -0.98042E+01  1480   0.143E+01    0.203E+00
RMM:   2    -0.764583241741E+03   -0.27294E+00   -0.32136E+00  1494   0.194E+00    0.107E+00
RMM:   3    -0.764550377288E+03    0.32864E-01   -0.76830E-02  1495   0.294E-01    0.991E-01
RMM:   4    -0.764554869825E+03   -0.44925E-02   -0.21839E-02  1325   0.148E-01    0.147E+00
RMM:   5    -0.764536178245E+03    0.18692E-01   -0.25962E-02  1335   0.180E-01    0.419E-01
RMM:   6    -0.764536244111E+03   -0.65866E-04   -0.64870E-03  1003   0.735E-02
  17 F= -.76453624E+03 E0= -.76452723E+03  d E =-.270352E+00
       N       E                     dE             d eps       ncg     rms          rms(c)
DAV:   1    -0.764534998929E+03    0.11793E-02   -0.61754E-02  1536   0.374E-01    0.134E-01
RMM:   2    -0.764535861727E+03   -0.86280E-03   -0.28082E-03   968   0.636E-02
  18 F= -.76453586E+03 E0= -.76452689E+03  d E =-.269969E+00
       N       E                     dE             d eps       ncg     rms          rms(c)
DAV:   1    -0.764599991260E+03   -0.64992E-01   -0.12072E+01  1536   0.520E+00    0.640E-01
RMM:   2    -0.764631494009E+03   -0.31503E-01   -0.29272E-01  1499   0.642E-01    0.103E+00
RMM:   3    -0.764625524013E+03    0.59700E-02   -0.14543E-02  1283   0.131E-01    0.874E-01
RMM:   4    -0.764620910949E+03    0.46131E-02   -0.37185E-03  1047   0.870E-02    0.238E-01
RMM:   5    -0.764621598171E+03   -0.68722E-03   -0.28610E-03   865   0.516E-02
  19 F= -.76462160E+03 E0= -.76461237E+03  d E =-.857364E-01
       N       E                     dE             d eps       ncg     rms          rms(c)
DAV:   1    -0.764601952721E+03    0.18958E-01   -0.39536E+01  1512   0.940E+00    0.110E+00
RMM:   2    -0.764692543493E+03   -0.90591E-01   -0.10258E+00  1506   0.115E+00    0.629E-01
RMM:   3    -0.764687134906E+03    0.54086E-02   -0.27060E-02  1446   0.184E-01    0.117E+00
RMM:   4    -0.764678857724E+03    0.82772E-02   -0.68063E-03  1095   0.918E-02    0.477E-01
RMM:   5    -0.764678033481E+03    0.82424E-03   -0.73365E-03  1174   0.103E-01
  20 F= -.76467803E+03 E0= -.76466934E+03  d E =-.142172E+00
       N       E                     dE             d eps       ncg     rms          rms(c)
DAV:   1    -0.764730864966E+03   -0.52007E-01   -0.79759E+00  1504   0.444E+00    0.553E-01
RMM:   2    -0.764749248938E+03   -0.18384E-01   -0.18190E-01  1486   0.514E-01    0.636E-01
RMM:   3    -0.764746464449E+03    0.27845E-02   -0.12934E-02  1066   0.996E-02    0.536E-01
RMM:   4    -0.764745331656E+03    0.11328E-02   -0.24835E-03   919   0.614E-02    0.479E-01
RMM:   5    -0.764744040459E+03    0.12912E-02   -0.13489E-03   801   0.429E-02    0.182E-01
RMM:   6    -0.764744222380E+03   -0.18192E-03   -0.10168E-03   819   0.411E-02
  21 F= -.76474422E+03 E0= -.76473581E+03  d E =-.661889E-01
       N       E                     dE             d eps       ncg     rms          rms(c)
DAV:   1    -0.764777722199E+03   -0.33682E-01   -0.71967E+01  1512   0.134E+01    0.161E+00
RMM:   2    -0.764952189337E+03   -0.17447E+00   -0.19479E+00  1518   0.164E+00    0.926E-01
RMM:   3    -0.764945947306E+03    0.62420E-02   -0.57407E-02  1445   0.268E-01    0.144E+00
RMM:   4    -0.764931119935E+03    0.14827E-01   -0.15614E-02  1252   0.133E-01    0.644E-01
RMM:   5    -0.764936365134E+03   -0.52452E-02   -0.14223E-02  1235   0.121E-01    0.822E-01
RMM:   6    -0.764929627106E+03    0.67380E-02   -0.99684E-03  1091   0.993E-02    0.186E-01
RMM:   7    -0.764929925138E+03   -0.29803E-03   -0.14647E-03   884   0.472E-02
  22 F= -.76492993E+03 E0= -.76492232E+03  d E =-.251892E+00
       N       E                     dE             d eps       ncg     rms          rms(c)
DAV:   1    -0.764354725451E+03    0.57490E+00   -0.28123E+02  1496   0.265E+01    0.348E+00
RMM:   2    -0.765308163388E+03   -0.95344E+00   -0.10699E+01  1502   0.396E+00    0.209E+00
RMM:   3    -0.765243847105E+03    0.64316E-01   -0.26029E-01  1531   0.592E-01    0.209E+00
RMM:   4    -0.765216622035E+03    0.27225E-01   -0.63554E-02  1414   0.263E-01    0.148E+00
RMM:   5    -0.765221722104E+03   -0.51001E-02   -0.95810E-02  1443   0.331E-01    0.135E+00
RMM:   6    -0.765203158993E+03    0.18563E-01   -0.34186E-02  1323   0.175E-01    0.505E-01
RMM:   7    -0.765201729481E+03    0.14295E-02   -0.11480E-02  1216   0.117E-01    0.224E-01
RMM:   8    -0.765201850474E+03   -0.12099E-03   -0.69252E-03  1119   0.856E-02
  23 F= -.76520185E+03 E0= -.76519694E+03  d E =-.523817E+00
       N       E                     dE             d eps       ncg     rms          rms(c)
DAV:   1    -0.759521031001E+03    0.56807E+01   -0.99368E+02  1488   0.501E+01    0.826E+00
RMM:   2    -0.766147101014E+03   -0.66261E+01   -0.76901E+01  1551   0.109E+01    0.624E+00
RMM:   3    -0.765227925799E+03    0.91918E+00   -0.23108E+00  1563   0.184E+00    0.518E+00
RMM:   4    -0.764953453167E+03    0.27447E+00   -0.37299E-01  1494   0.700E-01    0.349E+00
RMM:   5    -0.764808392849E+03    0.14506E+00   -0.14022E+00  1493   0.115E+00    0.139E+00
RMM:   6    -0.764804882803E+03    0.35100E-02   -0.13321E-01  1484   0.367E-01    0.118E+00
RMM:   7    -0.764791608092E+03    0.13275E-01   -0.10852E-01  1417   0.331E-01    0.929E-01
RMM:   8    -0.764792575567E+03   -0.96748E-03   -0.60443E-02  1405   0.249E-01    0.674E-01
RMM:   9    -0.764786158130E+03    0.64174E-02   -0.53330E-03  1121   0.896E-02    0.329E-01
RMM:  10    -0.764784601437E+03    0.15567E-02   -0.78685E-03  1129   0.915E-02    0.919E-02
RMM:  11    -0.764784690256E+03   -0.88820E-04   -0.17936E-03   839   0.468E-02
  24 F= -.76478469E+03 E0= -.76478858E+03  d E =-.106657E+00
       N       E                     dE             d eps       ncg     rms          rms(c)
DAV:   1    -0.765304418834E+03   -0.51982E+00   -0.16787E+02  1536   0.198E+01    0.208E+00
RMM:   2    -0.765814063107E+03   -0.50964E+00   -0.55330E+00  1516   0.297E+00    0.155E+00
RMM:   3    -0.765754424708E+03    0.59638E-01   -0.10530E-01  1553   0.398E-01    0.109E+00
RMM:   4    -0.765747747895E+03    0.66768E-02   -0.38371E-02  1398   0.210E-01    0.998E-01
RMM:   5    -0.765737372574E+03    0.10375E-01   -0.49213E-02  1410   0.254E-01    0.523E-01
RMM:   6    -0.765734869402E+03    0.25032E-02   -0.68878E-03  1121   0.851E-02    0.363E-01
RMM:   7    -0.765733752162E+03    0.11172E-02   -0.56895E-03  1095   0.809E-02    0.163E-01
RMM:   8    -0.765733565914E+03    0.18625E-03   -0.12823E-03   833   0.403E-02
  25 F= -.76573357E+03 E0= -.76573604E+03  d E =-.948876E+00
       N       E                     dE             d eps       ncg     rms          rms(c)
DAV:   1    -0.765390811365E+03    0.34294E+00   -0.23923E+02  1512   0.237E+01    0.262E+00
RMM:   2    -0.766220239891E+03   -0.82943E+00   -0.91235E+00  1521   0.375E+00    0.203E+00
RMM:   3    -0.766138464935E+03    0.81775E-01   -0.18449E-01  1547   0.523E-01    0.137E+00
RMM:   4    -0.766121813403E+03    0.16652E-01   -0.80848E-02  1441   0.310E-01    0.108E+00
RMM:   5    -0.766108010369E+03    0.13803E-01   -0.94211E-02  1422   0.327E-01    0.488E-01
RMM:   6    -0.766104618550E+03    0.33918E-02   -0.76090E-03  1232   0.101E-01    0.320E-01
RMM:   7    -0.766105075550E+03   -0.45700E-03   -0.11647E-02  1249   0.114E-01    0.434E-01
RMM:   8    -0.766103944343E+03    0.11312E-02   -0.36475E-03   994   0.675E-02    0.192E-01
RMM:   9    -0.766103431884E+03    0.51246E-03   -0.11934E-03   803   0.428E-02
  26 F= -.76610343E+03 E0= -.76610380E+03  d E =-.131874E+01
       N       E                     dE             d eps       ncg     rms          rms(c)
DAV:   1    -0.766013154419E+03    0.90790E-01   -0.13795E+02  1512   0.194E+01    0.250E+00
RMM:   2    -0.766318693638E+03   -0.30554E+00   -0.37046E+00  1503   0.253E+00    0.120E+00
RMM:   3    -0.766267811838E+03    0.50882E-01   -0.96468E-02  1525   0.377E-01    0.710E-01
RMM:   4    -0.766262882080E+03    0.49298E-02   -0.28035E-02  1434   0.185E-01    0.536E-01
RMM:   5    -0.766262386097E+03    0.49598E-03   -0.15363E-02  1329   0.130E-01    0.699E-01
RMM:   6    -0.766258907291E+03    0.34788E-02   -0.60770E-03  1091   0.840E-02    0.273E-01
RMM:   7    -0.766258488830E+03    0.41846E-03   -0.16018E-03   864   0.495E-02
  27 F= -.76625849E+03 E0= -.76626080E+03  d E =-.155057E+00
       N       E                     dE             d eps       ncg     rms          rms(c)
DAV:   1    -0.766259981817E+03   -0.10745E-02   -0.56450E+00  1512   0.388E+00    0.480E-01
RMM:   2    -0.766270412594E+03   -0.10431E-01   -0.12640E-01  1485   0.475E-01    0.226E-01
RMM:   3    -0.766268808753E+03    0.16038E-02   -0.44569E-03  1012   0.760E-02    0.230E-01
RMM:   4    -0.766268262554E+03    0.54620E-03   -0.13936E-03   810   0.408E-02
  28 F= -.76626826E+03 E0= -.76627021E+03  d E =-.164831E+00
       N       E                     dE             d eps       ncg     rms          rms(c)
DAV:   1    -0.766308618311E+03   -0.39810E-01   -0.43360E+01  1488   0.112E+01    0.147E+00
RMM:   2    -0.766407373179E+03   -0.98755E-01   -0.11818E+00  1517   0.148E+00    0.900E-01
RMM:   3    -0.766391391022E+03    0.15982E-01   -0.38980E-02  1478   0.250E-01    0.685E-01
RMM:   4    -0.766390066523E+03    0.13245E-02   -0.10761E-02  1239   0.111E-01    0.655E-01
RMM:   5    -0.766387148487E+03    0.29180E-02   -0.62215E-03  1167   0.963E-02    0.267E-01
RMM:   6    -0.766387317648E+03   -0.16916E-03   -0.23915E-03   960   0.632E-02
  29 F= -.76638732E+03 E0= -.76639100E+03  d E =-.119055E+00
       N       E                     dE             d eps       ncg     rms          rms(c)
DAV:   1    -0.765850144068E+03    0.53700E+00   -0.30070E+02  1496   0.298E+01    0.551E+00
RMM:   2    -0.767351103989E+03   -0.15010E+01   -0.13119E+01  1490   0.474E+00    0.588E+00
RMM:   3    -0.766584443721E+03    0.76666E+00   -0.94068E-01  1487   0.115E+00    0.238E+00
RMM:   4    -0.766550433702E+03    0.34010E-01   -0.23084E-01  1489   0.524E-01    0.171E+00
RMM:   5    -0.766534240441E+03    0.16193E-01   -0.77452E-02  1441   0.304E-01    0.119E+00
RMM:   6    -0.766533966933E+03    0.27351E-03   -0.30449E-02  1396   0.197E-01    0.835E-01
RMM:   7    -0.766527905332E+03    0.60616E-02   -0.15672E-02  1341   0.142E-01    0.402E-01
RMM:   8    -0.766527043569E+03    0.86176E-03   -0.54202E-03  1036   0.767E-02
  30 F= -.76652704E+03 E0= -.76653357E+03  d E =-.258781E+00
       N       E                     dE             d eps       ncg     rms          rms(c)
DAV:   1    -0.766567848985E+03   -0.39944E-01   -0.35381E+00  1536   0.328E+00    0.873E-01
RMM:   2    -0.766606199184E+03   -0.38350E-01   -0.18648E-01  1480   0.525E-01    0.160E+00
RMM:   3    -0.766568260331E+03    0.37939E-01   -0.33571E-02  1354   0.203E-01    0.257E-01
RMM:   4    -0.766569152874E+03   -0.89254E-03   -0.33622E-03   968   0.686E-02
  31 F= -.76656915E+03 E0= -.76657565E+03  d E =-.421093E-01
       N       E                     dE             d eps       ncg     rms          rms(c)
DAV:   1    -0.766703606466E+03   -0.13535E+00   -0.31693E+01  1512   0.979E+00    0.291E+00
RMM:   2    -0.767185198758E+03   -0.48159E+00   -0.19207E+00  1490   0.166E+00    0.496E+00
RMM:   3    -0.766719541621E+03    0.46566E+00   -0.37707E-01  1467   0.676E-01    0.150E+00
RMM:   4    -0.766708939531E+03    0.10602E-01   -0.65544E-02  1389   0.248E-01    0.599E-01
RMM:   5    -0.766709044479E+03   -0.10495E-03   -0.14266E-02  1325   0.137E-01    0.423E-01
RMM:   6    -0.766708462347E+03    0.58213E-03   -0.40082E-03  1075   0.781E-02
  32 F= -.76670846E+03 E0= -.76671515E+03  d E =-.181419E+00
       N       E                     dE             d eps       ncg     rms          rms(c)
DAV:   1    -0.766935927641E+03   -0.22688E+00   -0.12609E+02  1520   0.194E+01    0.497E+00
RMM:   2    -0.768448687627E+03   -0.15128E+01   -0.65272E+00  1482   0.300E+00    0.855E+00
RMM:   3    -0.767062875657E+03    0.13858E+01   -0.11807E+00  1480   0.120E+00    0.255E+00
RMM:   4    -0.767042252071E+03    0.20624E-01   -0.19102E-01  1449   0.437E-01    0.143E+00
RMM:   5    -0.767033214580E+03    0.90375E-02   -0.45125E-02  1415   0.246E-01    0.823E-01
RMM:   6    -0.767033132335E+03    0.82245E-04   -0.16393E-02  1341   0.142E-01    0.711E-01
RMM:   7    -0.767030138476E+03    0.29939E-02   -0.10662E-02  1287   0.118E-01    0.445E-01
RMM:   8    -0.767029199605E+03    0.93887E-03   -0.34620E-03  1003   0.711E-02
  33 F= -.76702920E+03 E0= -.76703612E+03  d E =-.502156E+00
       N       E                     dE             d eps       ncg     rms          rms(c)
DAV:   1    -0.766607573874E+03    0.42256E+00   -0.48963E+02  1528   0.379E+01    0.602E+00
RMM:   2    -0.769192148776E+03   -0.25846E+01   -0.19802E+01  1478   0.533E+00    0.103E+01
RMM:   3    -0.767869956831E+03    0.13222E+01   -0.20594E+00  1485   0.156E+00    0.315E+00
RMM:   4    -0.767761905407E+03    0.10805E+00   -0.19366E-01  1496   0.544E-01    0.165E+00
RMM:   5    -0.767755140780E+03    0.67646E-02   -0.10081E-01  1430   0.338E-01    0.170E+00
RMM:   6    -0.767746250116E+03    0.88907E-02   -0.71147E-02  1406   0.280E-01    0.122E+00
RMM:   7    -0.767735917452E+03    0.10333E-01   -0.25299E-02  1338   0.175E-01    0.711E-01
RMM:   8    -0.767734483718E+03    0.14337E-02   -0.14680E-02  1272   0.130E-01    0.485E-01
RMM:   9    -0.767732687492E+03    0.17962E-02   -0.40516E-03  1032   0.713E-02    0.174E-01
RMM:  10    -0.767732411935E+03    0.27556E-03   -0.77468E-04   762   0.327E-02
  34 F= -.76773241E+03 E0= -.76774034E+03  d E =-.120537E+01
       N       E                     dE             d eps       ncg     rms          rms(c)
DAV:   1    -0.758379411414E+03    0.93533E+01   -0.16751E+03  1472   0.671E+01    0.110E+01
RMM:   2    -0.771918699198E+03   -0.13539E+02   -0.15627E+02  1522   0.137E+01    0.966E+00
RMM:   3    -0.769809427394E+03    0.21093E+01   -0.57529E+00  1539   0.261E+00    0.766E+00
RMM:   4    -0.769183990768E+03    0.62544E+00   -0.62858E-01  1510   0.881E-01    0.505E+00
RMM:   5    -0.768953264698E+03    0.23073E+00   -0.64090E-01  1495   0.775E-01    0.376E+00
RMM:   6    -0.768821066959E+03    0.13220E+00   -0.56231E-01  1488   0.719E-01    0.253E+00
RMM:   7    -0.768788792047E+03    0.32275E-01   -0.18780E-01  1436   0.434E-01    0.153E+00
RMM:   8    -0.768785047587E+03    0.37445E-02   -0.12005E-01  1404   0.360E-01    0.112E+00
RMM:   9    -0.768775198536E+03    0.98491E-02   -0.16561E-02  1298   0.135E-01    0.762E-01
RMM:  10    -0.768767740363E+03    0.74582E-02   -0.16059E-02  1230   0.119E-01    0.210E-01
RMM:  11    -0.768767990569E+03   -0.25021E-03   -0.75481E-03  1129   0.812E-02
  35 F= -.76876799E+03 E0= -.76877735E+03  d E =-.224095E+01
       N       E                     dE             d eps       ncg     rms          rms(c)
DAV:   1    -0.726731289435E+03    0.42036E+02   -0.40021E+03  1616   0.959E+01    0.232E+01
RMM:   2    -0.774899869036E+03   -0.48169E+02   -0.66224E+02  2050   0.269E+01    0.158E+01
RMM:   3    -0.776110122764E+03   -0.12103E+01   -0.92006E+01  2140   0.917E+00    0.193E+01
RMM:   4    -0.778031297083E+03   -0.19212E+01   -0.37625E+01  1841   0.443E+00    0.188E+01
RMM:   5    -0.772899719189E+03    0.51316E+01   -0.39582E+00  1539   0.206E+00    0.138E+01
RMM:   6    -0.770105981349E+03    0.27937E+01   -0.34401E+00  1502   0.160E+00    0.868E+00
RMM:   7    -0.768887842585E+03    0.12181E+01   -0.29143E+00  1504   0.144E+00    0.400E+00
RMM:   8    -0.768721292310E+03    0.16655E+00   -0.79666E-01  1549   0.850E-01    0.227E+00
RMM:   9    -0.768708599538E+03    0.12693E-01   -0.15149E-01  1480   0.451E-01    0.198E+00
RMM:  10    -0.768656211656E+03    0.52388E-01   -0.21725E-01  1421   0.350E-01    0.562E-01
RMM:  11    -0.768653846938E+03    0.23647E-02   -0.27983E-02  1393   0.143E-01    0.268E-01
RMM:  12    -0.768653385957E+03    0.46098E-03   -0.32409E-03  1020   0.593E-02
  36 F= -.76865339E+03 E0= -.76866248E+03  d E =-.212634E+01
       N       E                     dE             d eps       ncg     rms          rms(c)
DAV:   1    -0.759377057241E+03    0.92768E+01   -0.18034E+03  1480   0.645E+01    0.112E+01
RMM:   2    -0.772820600717E+03   -0.13444E+02   -0.15640E+02  1550   0.135E+01    0.103E+01
RMM:   3    -0.769860859695E+03    0.29597E+01   -0.43072E+00  1512   0.218E+00    0.703E+00
RMM:   4    -0.769346205571E+03    0.51465E+00   -0.80610E-01  1510   0.897E-01    0.493E+00
RMM:   5    -0.769068728884E+03    0.27748E+00   -0.10227E+00  1489   0.969E-01    0.314E+00
RMM:   6    -0.769012672600E+03    0.56056E-01   -0.31362E-01  1478   0.542E-01    0.146E+00
RMM:   7    -0.769019776409E+03   -0.71038E-02   -0.17412E-01  1420   0.429E-01    0.148E+00
RMM:   8    -0.768993931278E+03    0.25845E-01   -0.31614E-02  1354   0.198E-01    0.843E-01
RMM:   9    -0.768984917059E+03    0.90142E-02   -0.48266E-02  1303   0.204E-01    0.159E-01
RMM:  10    -0.768985319443E+03   -0.40238E-03   -0.52797E-03  1076   0.650E-02
  37 F= -.76898532E+03 E0= -.76899581E+03  d E =-.245828E+01
       N       E                     dE             d eps       ncg     rms          rms(c)
DAV:   1    -0.769030563399E+03   -0.45646E-01   -0.58228E+01  1544   0.123E+01    0.123E+00
RMM:   2    -0.769187342203E+03   -0.15678E+00   -0.16809E+00  1463   0.146E+00    0.620E-01
RMM:   3    -0.769166433635E+03    0.20909E-01   -0.36181E-02  1355   0.201E-01    0.369E-01
RMM:   4    -0.769164331852E+03    0.21018E-02   -0.64201E-03  1150   0.869E-02    0.254E-01
RMM:   5    -0.769163543062E+03    0.78879E-03   -0.36093E-03  1020   0.668E-02
  38 F= -.76916354E+03 E0= -.76917404E+03  d E =-.178224E+00
       N       E                     dE             d eps       ncg     rms          rms(c)
DAV:   1    -0.767800010587E+03    0.13643E+01   -0.50981E+02  1512   0.360E+01    0.407E+00
RMM:   2    -0.769862171525E+03   -0.20622E+01   -0.21969E+01  1485   0.512E+00    0.296E+00
RMM:   3    -0.769606176774E+03    0.25599E+00   -0.48173E-01  1491   0.733E-01    0.163E+00
RMM:   4    -0.769590980254E+03    0.15197E-01   -0.10326E-01  1436   0.342E-01    0.156E+00
RMM:   5    -0.769558320729E+03    0.32660E-01   -0.57857E-02  1397   0.265E-01    0.685E-01
RMM:   6    -0.769554201256E+03    0.41195E-02   -0.18731E-02  1327   0.151E-01    0.360E-01
RMM:   7    -0.769552584340E+03    0.16169E-02   -0.72700E-03  1225   0.902E-02    0.205E-01
RMM:   8    -0.769552111679E+03    0.47266E-03   -0.14986E-03   834   0.469E-02
  39 F= -.76955211E+03 E0= -.76956187E+03  d E =-.566792E+00
       N       E                     dE             d eps       ncg     rms          rms(c)
DAV:   1    -0.757796625701E+03    0.11756E+02   -0.17906E+03  1504   0.663E+01    0.108E+01
RMM:   2    -0.772533769887E+03   -0.14737E+02   -0.16410E+02  1545   0.138E+01    0.954E+00
RMM:   3    -0.769915310433E+03    0.26185E+01   -0.47183E+00  1560   0.215E+00    0.677E+00
RMM:   4    -0.769296513416E+03    0.61880E+00   -0.14107E+00  1489   0.127E+00    0.378E+00
RMM:   5    -0.769129830000E+03    0.16668E+00   -0.72326E-01  1487   0.882E-01    0.198E+00
RMM:   6    -0.769111265742E+03    0.18564E-01   -0.10337E-01  1425   0.349E-01    0.148E+00
RMM:   7    -0.769102550975E+03    0.87148E-02   -0.44647E-02  1395   0.223E-01    0.130E+00
RMM:   8    -0.769081890920E+03    0.20660E-01   -0.11333E-01  1382   0.345E-01    0.420E-01
RMM:   9    -0.769079834306E+03    0.20566E-02   -0.10644E-02  1140   0.103E-01    0.270E-01
RMM:  10    -0.769079071064E+03    0.76324E-03   -0.41708E-03  1033   0.698E-02
  40 F= -.76907907E+03 E0= -.76908491E+03  d E =-.937516E-01
       N       E                     dE             d eps       ncg     rms          rms(c)
DAV:   1    -0.764663402756E+03    0.44164E+01   -0.11808E+03  1488   0.550E+01    0.776E+00
RMM:   2    -0.771010151084E+03   -0.63467E+01   -0.72401E+01  1488   0.920E+00    0.650E+00
RMM:   3    -0.769879373653E+03    0.11308E+01   -0.18548E+00  1523   0.147E+00    0.370E+00
RMM:   4    -0.769710199911E+03    0.16917E+00   -0.46728E-01  1492   0.738E-01    0.232E+00
RMM:   5    -0.769662860524E+03    0.47339E-01   -0.28719E-01  1488   0.566E-01    0.160E+00
RMM:   6    -0.769636441821E+03    0.26419E-01   -0.60017E-02  1408   0.259E-01    0.756E-01
RMM:   7    -0.769636100662E+03    0.34116E-03   -0.55313E-02  1374   0.247E-01    0.605E-01
RMM:   8    -0.769629810156E+03    0.62905E-02   -0.63724E-03  1208   0.879E-02    0.328E-01
RMM:   9    -0.769628693593E+03    0.11166E-02   -0.10091E-02  1193   0.100E-01    0.104E-01
RMM:  10    -0.769628667172E+03    0.26421E-04   -0.48962E-04   752   0.287E-02
  41 F= -.76962867E+03 E0= -.76963777E+03  d E =-.643348E+00
       N       E                     dE             d eps       ncg     rms          rms(c)
DAV:   1    -0.769910907490E+03   -0.28221E+00   -0.60406E+00  1520   0.369E+00    0.390E-01
RMM:   2    -0.769926648787E+03   -0.15741E-01   -0.16776E-01  1389   0.452E-01    0.201E-01
RMM:   3    -0.769924338010E+03    0.23108E-02   -0.35849E-03  1016   0.633E-02    0.132E-01
RMM:   4    -0.769924152781E+03    0.18523E-03   -0.57740E-04   744   0.296E-02
  42 F= -.76992415E+03 E0= -.76993314E+03  d E =-.295486E+00
       N       E                     dE             d eps       ncg     rms          rms(c)
DAV:   1    -0.770633563097E+03   -0.70923E+00   -0.54253E+01  1504   0.111E+01    0.125E+00
RMM:   2    -0.770796068486E+03   -0.16251E+00   -0.17194E+00  1473   0.141E+00    0.834E-01
RMM:   3    -0.770774638378E+03    0.21430E-01   -0.40563E-02  1382   0.210E-01    0.613E-01
RMM:   4    -0.770771587609E+03    0.30508E-02   -0.86017E-03  1153   0.953E-02    0.480E-01
RMM:   5    -0.770769255783E+03    0.23318E-02   -0.42414E-03  1068   0.743E-02    0.260E-01
RMM:   6    -0.770768250179E+03    0.10056E-02   -0.27010E-03   970   0.616E-02    0.806E-02
RMM:   7    -0.770768158868E+03    0.91311E-04   -0.66514E-04   745   0.339E-02
  43 F= -.77076816E+03 E0= -.77077685E+03  d E =-.113949E+01
       N       E                     dE             d eps       ncg     rms          rms(c)
DAV:   1    -0.771485579418E+03   -0.71733E+00   -0.21593E+02  1480   0.224E+01    0.284E+00
RMM:   2    -0.772340838451E+03   -0.85526E+00   -0.90786E+00  1490   0.324E+00    0.205E+00
RMM:   3    -0.772242853507E+03    0.97985E-01   -0.17670E-01  1467   0.451E-01    0.113E+00
RMM:   4    -0.772231159664E+03    0.11694E-01   -0.33215E-02  1404   0.204E-01    0.776E-01
RMM:   5    -0.772220036378E+03    0.11123E-01   -0.15663E-02  1312   0.143E-01    0.384E-01
RMM:   6    -0.772219090112E+03    0.94627E-03   -0.91298E-03  1259   0.113E-01
  44 F= -.77221909E+03 E0= -.77222696E+03  d E =-.259042E+01
       N       E                     dE             d eps       ncg     rms          rms(c)
DAV:   1    -0.769255695788E+03    0.29643E+01   -0.82341E+02  1488   0.449E+01    0.634E+00
RMM:   2    -0.774372884329E+03   -0.51172E+01   -0.54566E+01  1515   0.896E+00    0.514E+00
RMM:   3    -0.773755045552E+03    0.61784E+00   -0.11427E+00  1530   0.128E+00    0.343E+00
RMM:   4    -0.773647339450E+03    0.10771E+00   -0.27881E-01  1515   0.621E-01    0.236E+00
RMM:   5    -0.773569566263E+03    0.77773E-01   -0.34239E-01  1483   0.670E-01    0.121E+00
RMM:   6    -0.773555631927E+03    0.13934E-01   -0.40816E-02  1382   0.209E-01    0.739E-01
RMM:   7    -0.773554703043E+03    0.92888E-03   -0.56336E-02  1409   0.243E-01    0.636E-01
RMM:   8    -0.773547932550E+03    0.67705E-02   -0.14743E-02  1306   0.149E-01    0.220E-01
RMM:   9    -0.773547564152E+03    0.36840E-03   -0.81210E-03  1179   0.101E-01
  45 F= -.77354756E+03 E0= -.77355532E+03  d E =-.391890E+01
       N       E                     dE             d eps       ncg     rms          rms(c)
DAV:   1    -0.773907344110E+03   -0.35941E+00   -0.54216E+01  1496   0.125E+01    0.141E+00
RMM:   2    -0.774060441802E+03   -0.15310E+00   -0.17480E+00  1529   0.175E+00    0.896E-01
RMM:   3    -0.774031640694E+03    0.28801E-01   -0.46420E-02  1491   0.259E-01    0.568E-01
RMM:   4    -0.774026937735E+03    0.47030E-02   -0.10515E-02  1334   0.118E-01    0.450E-01
RMM:   5    -0.774024325957E+03    0.26118E-02   -0.89074E-03  1275   0.109E-01    0.349E-01
RMM:   6    -0.774022806683E+03    0.15193E-02   -0.33716E-03   988   0.676E-02    0.125E-01
RMM:   7    -0.774022726293E+03    0.80390E-04   -0.68472E-04   797   0.363E-02
  46 F= -.77402273E+03 E0= -.77403022E+03  d E =-.475162E+00
       N       E                     dE             d eps       ncg     rms          rms(c)
DAV:   1    -0.774047708364E+03   -0.24902E-01   -0.65658E+01  1472   0.138E+01    0.164E+00
RMM:   2    -0.774246542514E+03   -0.19883E+00   -0.22451E+00  1533   0.195E+00    0.980E-01
RMM:   3    -0.774214709774E+03    0.31833E-01   -0.57370E-02  1498   0.291E-01    0.663E-01
RMM:   4    -0.774209273864E+03    0.54359E-02   -0.13423E-02  1359   0.130E-01    0.542E-01
RMM:   5    -0.774205414553E+03    0.38593E-02   -0.10489E-02  1313   0.119E-01    0.354E-01
RMM:   6    -0.774203695917E+03    0.17186E-02   -0.39370E-03  1060   0.744E-02    0.133E-01
RMM:   7    -0.774203566343E+03    0.12957E-03   -0.82301E-04   819   0.403E-02
  47 F= -.77420357E+03 E0= -.77421044E+03  d E =-.656002E+00
       N       E                     dE             d eps       ncg     rms          rms(c)
DAV:   1    -0.774584469831E+03   -0.38077E+00   -0.37929E+01  1488   0.103E+01    0.124E+00
RMM:   2    -0.774680594576E+03   -0.96125E-01   -0.10975E+00  1533   0.137E+00    0.683E-01
RMM:   3    -0.774665494510E+03    0.15100E-01   -0.31096E-02  1465   0.213E-01    0.527E-01
RMM:   4    -0.774661565367E+03    0.39291E-02   -0.83379E-03  1219   0.993E-02    0.406E-01
RMM:   5    -0.774659857062E+03    0.17083E-02   -0.56335E-03  1137   0.869E-02    0.265E-01
RMM:   6    -0.774658755298E+03    0.11018E-02   -0.20563E-03   924   0.567E-02    0.808E-02
RMM:   7    -0.774658767411E+03   -0.12113E-04   -0.40728E-04   762   0.285E-02
  48 F= -.77465877E+03 E0= -.77466517E+03  d E =-.455201E+00
       N       E                     dE             d eps       ncg     rms          rms(c)
DAV:   1    -0.774234620542E+03    0.42413E+00   -0.29203E+02  1480   0.284E+01    0.349E+00
RMM:   2    -0.775255507980E+03   -0.10209E+01   -0.11609E+01  1523   0.428E+00    0.233E+00
RMM:   3    -0.775129741809E+03    0.12577E+00   -0.31477E-01  1535   0.655E-01    0.201E+00
RMM:   4    -0.775095389543E+03    0.34352E-01   -0.78008E-02  1446   0.304E-01    0.135E+00
RMM:   5    -0.775068825785E+03    0.26564E-01   -0.10309E-01  1445   0.369E-01    0.465E-01
RMM:   6    -0.775066503092E+03    0.23227E-02   -0.13284E-02  1345   0.121E-01    0.271E-01
RMM:   7    -0.775065333038E+03    0.11701E-02   -0.69906E-03  1199   0.873E-02    0.168E-01
RMM:   8    -0.775064951531E+03    0.38151E-03   -0.58270E-04   819   0.321E-02
  49 F= -.77506495E+03 E0= -.77507189E+03  d E =-.861385E+00
       N       E                     dE             d eps       ncg     rms          rms(c)
DAV:   1    -0.775055737885E+03    0.95952E-02   -0.27280E+01  1520   0.854E+00    0.102E+00
RMM:   2    -0.775126971838E+03   -0.71234E-01   -0.81212E-01  1537   0.115E+00    0.668E-01
RMM:   3    -0.775116343504E+03    0.10628E-01   -0.26630E-02  1421   0.191E-01    0.637E-01
RMM:   4    -0.775112038691E+03    0.43048E-02   -0.78254E-03  1172   0.979E-02    0.356E-01
RMM:   5    -0.775110220284E+03    0.18184E-02   -0.42638E-03  1103   0.834E-02    0.116E-01
RMM:   6    -0.775110172919E+03    0.47365E-04   -0.91541E-04   821   0.374E-02
  50 F= -.77511017E+03 E0= -.77511656E+03  d E =-.906607E+00
       N       E                     dE             d eps       ncg     rms          rms(c)
DAV:   1    -0.775375400904E+03   -0.26518E+00   -0.44110E+01  1488   0.111E+01    0.113E+00
RMM:   2    -0.775497330518E+03   -0.12193E+00   -0.13249E+00  1530   0.139E+00    0.602E-01
RMM:   3    -0.775479516580E+03    0.17814E-01   -0.29281E-02  1446   0.199E-01    0.385E-01
RMM:   4    -0.775477611132E+03    0.19054E-02   -0.10265E-02  1328   0.124E-01    0.354E-01
RMM:   5    -0.775476329023E+03    0.12821E-02   -0.31129E-03   963   0.609E-02    0.178E-01
RMM:   6    -0.775476114739E+03    0.21428E-03   -0.72784E-04   804   0.366E-02
  51 F= -.77547611E+03 E0= -.77548269E+03  d E =-.365942E+00
       N       E                     dE             d eps       ncg     rms          rms(c)
DAV:   1    -0.774541207863E+03    0.93512E+00   -0.38678E+02  1504   0.327E+01    0.364E+00
RMM:   2    -0.776024593512E+03   -0.14834E+01   -0.16086E+01  1513   0.481E+00    0.233E+00
RMM:   3    -0.775857520862E+03    0.16707E+00   -0.36234E-01  1561   0.693E-01    0.153E+00
RMM:   4    -0.775847743465E+03    0.97774E-02   -0.15882E-01  1471   0.463E-01    0.179E+00
RMM:   5    -0.775815886474E+03    0.31857E-01   -0.64370E-02  1420   0.279E-01    0.617E-01
RMM:   6    -0.775813140214E+03    0.27463E-02   -0.15868E-02  1381   0.149E-01    0.286E-01
RMM:   7    -0.775812830620E+03    0.30959E-03   -0.75797E-03  1248   0.953E-02
  52 F= -.77581283E+03 E0= -.77581904E+03  d E =-.702658E+00
       N       E                     dE             d eps       ncg     rms          rms(c)
DAV:   1    -0.775778876998E+03    0.34263E-01   -0.33304E+01  1488   0.970E+00    0.100E+00
RMM:   2    -0.775875575275E+03   -0.96698E-01   -0.10563E+00  1533   0.126E+00    0.579E-01
RMM:   3    -0.775860348285E+03    0.15227E-01   -0.24544E-02  1442   0.184E-01    0.422E-01
RMM:   4    -0.775859243809E+03    0.11045E-02   -0.58164E-03  1145   0.862E-02    0.419E-01
RMM:   5    -0.775856857027E+03    0.23868E-02   -0.48308E-03  1104   0.836E-02    0.172E-01
RMM:   6    -0.775856426918E+03    0.43011E-03   -0.10328E-03   827   0.421E-02
  53 F= -.77585643E+03 E0= -.77586270E+03  d E =-.746254E+00
       N       E                     dE             d eps       ncg     rms          rms(c)
DAV:   1    -0.775965535625E+03   -0.10868E+00   -0.11066E+02  1520   0.170E+01    0.166E+00
RMM:   2    -0.776286340939E+03   -0.32081E+00   -0.34443E+00  1541   0.224E+00    0.102E+00
RMM:   3    -0.776247524644E+03    0.38816E-01   -0.68318E-02  1492   0.304E-01    0.691E-01
RMM:   4    -0.776246512218E+03    0.10124E-02   -0.22773E-02  1384   0.169E-01    0.855E-01
RMM:   5    -0.776237581278E+03    0.89309E-02   -0.15147E-02  1341   0.141E-01    0.253E-01
RMM:   6    -0.776237183018E+03    0.39826E-03   -0.21931E-03   953   0.581E-02
  54 F= -.77623718E+03 E0= -.77624376E+03  d E =-.380756E+00
       N       E                     dE             d eps       ncg     rms          rms(c)
DAV:   1    -0.775850623619E+03    0.38696E+00   -0.19930E+02  1496   0.231E+01    0.230E+00
RMM:   2    -0.776480736300E+03   -0.63011E+00   -0.67830E+00  1528   0.324E+00    0.147E+00
RMM:   3    -0.776402602784E+03    0.78134E-01   -0.13550E-01  1535   0.437E-01    0.962E-01
RMM:   4    -0.776399671049E+03    0.29317E-02   -0.67657E-02  1434   0.297E-01    0.125E+00
RMM:   5    -0.776383468349E+03    0.16203E-01   -0.26649E-02  1379   0.179E-01    0.389E-01
RMM:   6    -0.776382465656E+03    0.10027E-02   -0.48608E-03  1136   0.857E-02    0.178E-01
RMM:   7    -0.776382451233E+03    0.14423E-04   -0.52745E-03  1092   0.779E-02
  55 F= -.77638245E+03 E0= -.77638899E+03  d E =-.526024E+00
       N       E                     dE             d eps       ncg     rms          rms(c)
DAV:   1    -0.776425045670E+03   -0.42580E-01   -0.95939E+01  1504   0.160E+01    0.143E+00
RMM:   2    -0.776670161063E+03   -0.24512E+00   -0.26306E+00  1531   0.201E+00    0.880E-01
RMM:   3    -0.776639115132E+03    0.31046E-01   -0.53330E-02  1475   0.278E-01    0.787E-01
RMM:   4    -0.776634365869E+03    0.47493E-02   -0.11635E-02  1280   0.118E-01    0.587E-01
RMM:   5    -0.776629211407E+03    0.51545E-02   -0.14622E-02  1350   0.144E-01    0.213E-01
RMM:   6    -0.776628229362E+03    0.98204E-03   -0.22557E-03   944   0.569E-02
  56 F= -.77662823E+03 E0= -.77663531E+03  d E =-.245778E+00
       N       E                     dE             d eps       ncg     rms          rms(c)
DAV:   1    -0.776403092727E+03    0.22612E+00   -0.14165E+02  1528   0.195E+01    0.180E+00
RMM:   2    -0.776797138060E+03   -0.39405E+00   -0.42424E+00  1532   0.257E+00    0.116E+00
RMM:   3    -0.776746932463E+03    0.50206E-01   -0.86799E-02  1497   0.356E-01    0.110E+00
RMM:   4    -0.776736899744E+03    0.10033E-01   -0.17921E-02  1348   0.147E-01    0.714E-01
RMM:   5    -0.776728064365E+03    0.88354E-02   -0.32550E-02  1392   0.208E-01    0.233E-01
RMM:   6    -0.776727033137E+03    0.10312E-02   -0.28923E-03  1001   0.634E-02    0.115E-01
RMM:   7    -0.776727009624E+03    0.23513E-04   -0.18650E-03   880   0.519E-02
  57 F= -.77672701E+03 E0= -.77673403E+03  d E =-.344558E+00
       N       E                     dE             d eps       ncg     rms          rms(c)
DAV:   1    -0.776829479980E+03   -0.10245E+00   -0.12461E+01  1552   0.605E+00    0.682E-01
RMM:   2    -0.776867549042E+03   -0.38069E-01   -0.42210E-01  1529   0.828E-01    0.380E-01
RMM:   3    -0.776860381380E+03    0.71677E-02   -0.90836E-03  1276   0.119E-01    0.231E-01
RMM:   4    -0.776859579282E+03    0.80210E-03   -0.24631E-03   943   0.643E-02
  58 F= -.77685958E+03 E0= -.77686680E+03  d E =-.132570E+00
       N       E                     dE             d eps       ncg     rms          rms(c)
DAV:   1    -0.776823321496E+03    0.37060E-01   -0.42699E+01  1480   0.112E+01    0.129E+00
RMM:   2    -0.776958976945E+03   -0.13566E+00   -0.15116E+00  1544   0.162E+00    0.827E-01
RMM:   3    -0.776936298046E+03    0.22679E-01   -0.37887E-02  1455   0.242E-01    0.734E-01
RMM:   4    -0.776932371910E+03    0.39261E-02   -0.10304E-02  1279   0.114E-01    0.571E-01
RMM:   5    -0.776928021592E+03    0.43503E-02   -0.10454E-02  1340   0.129E-01    0.162E-01
RMM:   6    -0.776927362363E+03    0.65923E-03   -0.14366E-03   878   0.469E-02
  59 F= -.77692736E+03 E0= -.77693461E+03  d E =-.200353E+00
       N       E                     dE             d eps       ncg     rms          rms(c)
DAV:   1    -0.776960745651E+03   -0.32724E-01   -0.26734E+01  1504   0.860E+00    0.991E-01
RMM:   2    -0.777021936625E+03   -0.61191E-01   -0.74004E-01  1537   0.109E+00    0.511E-01
RMM:   3    -0.777008961088E+03    0.12976E-01   -0.19363E-02  1409   0.168E-01    0.442E-01
RMM:   4    -0.777008059368E+03    0.90172E-03   -0.64529E-03  1094   0.864E-02
  60 F= -.77700806E+03 E0= -.77701457E+03  d E =-.806970E-01
       N       E                     dE             d eps       ncg     rms          rms(c)
DAV:   1    -0.777004605425E+03    0.43557E-02   -0.63797E-03  1264   0.135E-01    0.742E-02
RMM:   2    -0.777004856459E+03   -0.25103E-03   -0.19814E-03   896   0.584E-02
  61 F= -.77700486E+03 E0= -.77701167E+03  d E =-.774941E-01
       N       E                     dE             d eps       ncg     rms          rms(c)
DAV:   1    -0.777026769443E+03   -0.22164E-01   -0.64770E+00  1496   0.408E+00    0.425E-01
RMM:   2    -0.777045140111E+03   -0.18371E-01   -0.19617E-01  1484   0.488E-01    0.251E-01
RMM:   3    -0.777042533445E+03    0.26067E-02   -0.46592E-03  1052   0.769E-02    0.284E-01
RMM:   4    -0.777041767918E+03    0.76553E-03   -0.87979E-04   790   0.370E-02
  62 F= -.77704177E+03 E0= -.77704846E+03  d E =-.369115E-01
       N       E                     dE             d eps       ncg     rms          rms(c)
DAV:   1    -0.776935028837E+03    0.10750E+00   -0.57759E+01  1480   0.121E+01    0.134E+00
RMM:   2    -0.777118383466E+03   -0.18335E+00   -0.19696E+00  1513   0.153E+00    0.810E-01
RMM:   3    -0.777093308857E+03    0.25075E-01   -0.45665E-02  1443   0.236E-01    0.790E-01
RMM:   4    -0.777087526758E+03    0.57821E-02   -0.83929E-03  1170   0.101E-01    0.450E-01
RMM:   5    -0.777084360476E+03    0.31663E-02   -0.89186E-03  1258   0.117E-01    0.133E-01
RMM:   6    -0.777084143687E+03    0.21679E-03   -0.12088E-03   844   0.422E-02
  63 F= -.77708414E+03 E0= -.77709061E+03  d E =-.792872E-01
       N       E                     dE             d eps       ncg     rms          rms(c)
DAV:   1    -0.777102264287E+03   -0.17904E-01   -0.42354E+00  1504   0.334E+00    0.379E-01
RMM:   2    -0.777114207048E+03   -0.11943E-01   -0.13036E-01  1481   0.417E-01    0.188E-01
RMM:   3    -0.777112102132E+03    0.21049E-02   -0.25601E-03   951   0.617E-02    0.130E-01
RMM:   4    -0.777112108224E+03   -0.60916E-05   -0.77286E-04   783   0.363E-02
  64 F= -.77711211E+03 E0= -.77711851E+03  d E =-.279645E-01
       N       E                     dE             d eps       ncg     rms          rms(c)
DAV:   1    -0.777081503702E+03    0.30598E-01   -0.23446E+01  1480   0.785E+00    0.891E-01
RMM:   2    -0.777149944274E+03   -0.68441E-01   -0.74919E-01  1515   0.993E-01    0.467E-01
RMM:   3    -0.777138333340E+03    0.11611E-01   -0.17077E-02  1363   0.149E-01    0.410E-01
RMM:   4    -0.777137252281E+03    0.10811E-02   -0.35920E-03   987   0.673E-02    0.343E-01
RMM:   5    -0.777135594236E+03    0.16580E-02   -0.37268E-03  1022   0.782E-02    0.715E-02
RMM:   6    -0.777135617158E+03   -0.22922E-04   -0.42377E-04   767   0.290E-02
  65 F= -.77713562E+03 E0= -.77714160E+03  d E =-.514735E-01
       N       E                     dE             d eps       ncg     rms          rms(c)
DAV:   1    -0.777156866809E+03   -0.21273E-01   -0.18394E+00  1528   0.236E+00    0.279E-01
RMM:   2    -0.777162270906E+03   -0.54041E-02   -0.62742E-02  1509   0.332E-01    0.178E-01
RMM:   3    -0.777161270923E+03    0.99998E-03   -0.18137E-03   902   0.560E-02
  66 F= -.77716127E+03 E0= -.77716686E+03  d E =-.256538E-01
       N       E                     dE             d eps       ncg     rms          rms(c)
DAV:   1    -0.777164843351E+03   -0.25724E-02   -0.55202E+00  1504   0.408E+00    0.485E-01
RMM:   2    -0.777179687902E+03   -0.14845E-01   -0.18155E-01  1529   0.563E-01    0.299E-01
RMM:   3    -0.777176100283E+03    0.35876E-02   -0.50603E-03  1145   0.906E-02    0.200E-01
RMM:   4    -0.777176226486E+03   -0.12620E-03   -0.20526E-03   909   0.565E-02
  67 F= -.77717623E+03 E0= -.77718123E+03  d E =-.406093E-01
       N       E                     dE             d eps       ncg     rms          rms(c)
DAV:   1    -0.777191355298E+03   -0.15255E-01   -0.40113E+00  1504   0.336E+00    0.370E-01
RMM:   2    -0.777202824543E+03   -0.11469E-01   -0.12048E-01  1505   0.423E-01    0.262E-01
RMM:   3    -0.777201595801E+03    0.12287E-02   -0.45249E-03  1035   0.749E-02    0.339E-01
RMM:   4    -0.777200403246E+03    0.11926E-02   -0.98256E-04   803   0.402E-02    0.101E-01
RMM:   5    -0.777200374022E+03    0.29224E-04   -0.64672E-04   774   0.344E-02
  68 F= -.77720037E+03 E0= -.77720543E+03  d E =-.241475E-01
       N       E                     dE             d eps       ncg     rms          rms(c)
DAV:   1    -0.777154646197E+03    0.45757E-01   -0.32240E+01  1496   0.950E+00    0.100E+00
RMM:   2    -0.777242997707E+03   -0.88352E-01   -0.96957E-01  1526   0.119E+00    0.456E-01
RMM:   3    -0.777228656428E+03    0.14341E-01   -0.21089E-02  1411   0.166E-01    0.287E-01
RMM:   4    -0.777227320971E+03    0.13355E-02   -0.58382E-03  1197   0.934E-02    0.202E-01
RMM:   5    -0.777227118160E+03    0.20281E-03   -0.20659E-03   914   0.535E-02
  69 F= -.77722712E+03 E0= -.77723166E+03  d E =-.508917E-01
       N       E                     dE             d eps       ncg     rms          rms(c)
DAV:   1    -0.777237259295E+03   -0.99383E-02   -0.20441E+00  1544   0.235E+00    0.289E-01
RMM:   2    -0.777243702283E+03   -0.64430E-02   -0.68895E-02  1481   0.320E-01    0.217E-01
RMM:   3    -0.777242928230E+03    0.77405E-03   -0.24509E-03   957   0.580E-02
  70 F= -.77724293E+03 E0= -.77724793E+03  d E =-.158101E-01
       N       E                     dE             d eps       ncg     rms          rms(c)
DAV:   1    -0.777239927948E+03    0.37743E-02   -0.39335E+00  1496   0.324E+00    0.396E-01
RMM:   2    -0.777250917053E+03   -0.10989E-01   -0.12663E-01  1502   0.429E-01    0.257E-01
RMM:   3    -0.777248812731E+03    0.21043E-02   -0.30610E-03   983   0.708E-02    0.190E-01
RMM:   4    -0.777249024633E+03   -0.21190E-03   -0.14890E-03   857   0.476E-02
  71 F= -.77724902E+03 E0= -.77725363E+03  d E =-.219065E-01
       N       E                     dE             d eps       ncg     rms          rms(c)
DAV:   1    -0.777251636617E+03   -0.28239E-02   -0.47204E+00  1520   0.361E+00    0.395E-01
RMM:   2    -0.777265052173E+03   -0.13416E-01   -0.14662E-01  1498   0.459E-01    0.200E-01
RMM:   3    -0.777262872430E+03    0.21797E-02   -0.28532E-03   981   0.661E-02    0.143E-01
RMM:   4    -0.777262872884E+03   -0.45388E-06   -0.79079E-04   809   0.367E-02
  72 F= -.77726287E+03 E0= -.77726789E+03  d E =-.138483E-01
       N       E                     dE             d eps       ncg     rms          rms(c)
DAV:   1    -0.777247076971E+03    0.15795E-01   -0.96124E+00  1504   0.516E+00    0.558E-01
RMM:   2    -0.777274757725E+03   -0.27681E-01   -0.29903E-01  1511   0.651E-01    0.350E-01
RMM:   3    -0.777271222288E+03    0.35354E-02   -0.86673E-03  1204   0.106E-01    0.428E-01
RMM:   4    -0.777269463944E+03    0.17583E-02   -0.17350E-03   903   0.511E-02    0.175E-01
RMM:   5    -0.777269231674E+03    0.23227E-03   -0.15368E-03   868   0.543E-02
  73 F= -.77726923E+03 E0= -.77727414E+03  d E =-.202070E-01
       N       E                     dE             d eps       ncg     rms          rms(c)
DAV:   1    -0.777271687617E+03   -0.22237E-02   -0.57662E+00  1512   0.395E+00    0.431E-01
RMM:   2    -0.777287888883E+03   -0.16201E-01   -0.17715E-01  1507   0.509E-01    0.230E-01
RMM:   3    -0.777285180127E+03    0.27088E-02   -0.40594E-03  1042   0.773E-02    0.199E-01
RMM:   4    -0.777284993691E+03    0.18644E-03   -0.99317E-04   836   0.391E-02
  74 F= -.77728499E+03 E0= -.77728979E+03  d E =-.157620E-01
       N       E                     dE             d eps       ncg     rms          rms(c)
DAV:   1    -0.777278643079E+03    0.65370E-02   -0.48046E+00  1512   0.361E+00    0.387E-01
RMM:   2    -0.777291451831E+03   -0.12809E-01   -0.14035E-01  1498   0.463E-01    0.222E-01
RMM:   3    -0.777289200722E+03    0.22511E-02   -0.34227E-03  1011   0.719E-02    0.202E-01
RMM:   4    -0.777288926940E+03    0.27378E-03   -0.89390E-04   830   0.377E-02
  75 F= -.77728893E+03 E0= -.77729348E+03  d E =-.196953E-01
       N       E                     dE             d eps       ncg     rms          rms(c)
DAV:   1    -0.777293723453E+03   -0.45227E-02   -0.57037E+00  1504   0.393E+00    0.425E-01
RMM:   2    -0.777309414848E+03   -0.15691E-01   -0.16977E-01  1527   0.506E-01    0.236E-01
RMM:   3    -0.777306934926E+03    0.24799E-02   -0.40612E-03  1040   0.785E-02    0.216E-01
RMM:   4    -0.777306599593E+03    0.33533E-03   -0.97429E-04   840   0.395E-02
  76 F= -.77730660E+03 E0= -.77731093E+03  d E =-.176727E-01
       N       E                     dE             d eps       ncg     rms          rms(c)
DAV:   1    -0.777230262257E+03    0.76673E-01   -0.37885E+01  1504   0.101E+01    0.108E+00
RMM:   2    -0.777339828613E+03   -0.10957E+00   -0.11818E+00  1543   0.134E+00    0.582E-01
RMM:   3    -0.777323617625E+03    0.16211E-01   -0.27870E-02  1442   0.198E-01    0.517E-01
RMM:   4    -0.777321711997E+03    0.19056E-02   -0.58570E-03  1097   0.848E-02    0.414E-01
RMM:   5    -0.777320193428E+03    0.15186E-02   -0.68954E-03  1237   0.105E-01    0.121E-01
RMM:   6    -0.777319963887E+03    0.22954E-03   -0.93543E-04   848   0.397E-02
  77 F= -.77731996E+03 E0= -.77732370E+03  d E =-.310369E-01
       N       E                     dE             d eps       ncg     rms          rms(c)
DAV:   1    -0.777324089328E+03   -0.38959E-02   -0.90271E-01  1576   0.155E+00    0.181E-01
RMM:   2    -0.777326604395E+03   -0.25151E-02   -0.26358E-02  1414   0.203E-01    0.935E-02
RMM:   3    -0.777326311081E+03    0.29331E-03   -0.60185E-04   827   0.340E-02
  78 F= -.77732631E+03 E0= -.77732988E+03  d E =-.634719E-02
       N       E                     dE             d eps       ncg     rms          rms(c)
DAV:   1    -0.777321374729E+03    0.52297E-02   -0.81161E+00  1488   0.466E+00    0.502E-01
RMM:   2    -0.777343412536E+03   -0.22038E-01   -0.23932E-01  1532   0.610E-01    0.270E-01
RMM:   3    -0.777339915755E+03    0.34968E-02   -0.47867E-03  1084   0.874E-02    0.177E-01
RMM:   4    -0.777340050260E+03   -0.13450E-03   -0.25443E-03   946   0.661E-02
  79 F= -.77734005E+03 E0= -.77734371E+03  d E =-.200864E-01
       N       E                     dE             d eps       ncg     rms          rms(c)
DAV:   1    -0.777345060733E+03   -0.51450E-02   -0.84677E-02  1592   0.496E-01    0.819E-02
RMM:   2    -0.777345493697E+03   -0.43296E-03   -0.40803E-03   995   0.881E-02
  80 F= -.77734549E+03 E0= -.77734906E+03  d E =-.544344E-02
       N       E                     dE             d eps       ncg     rms          rms(c)
DAV:   1    -0.777351539214E+03   -0.64785E-02   -0.72232E-01  1512   0.143E+00    0.211E-01
RMM:   2    -0.777354108925E+03   -0.25697E-02   -0.28451E-02  1460   0.222E-01    0.229E-01
RMM:   3    -0.777353360856E+03    0.74807E-03   -0.12363E-03   868   0.434E-02
  81 F= -.77735336E+03 E0= -.77735692E+03  d E =-.133106E-01
