<?xml version="1.0" encoding="ISO-8859-1"?>
<modeling>
 <generator>
  <i name="program" type="string">vasp </i>
  <i name="version" type="string">5.4.1  </i>
  <i name="subversion" type="string">05Feb16 (build Feb 01 2017 11:31:40) complex                          parallel </i>
  <i name="platform" type="string">IFC91_ompi </i>
  <i name="date" type="string">2021 07 07 </i>
  <i name="time" type="string">11:28:24 </i>
 </generator>
 <incar>
  <i type="string" name="SYSTEM">Al_Al2O3</i>
  <i type="string" name="PREC">accurate</i>
  <i type="string" name="ALGO"> Fast</i>
  <i type="int" name="NELM">   100</i>
  <i type="int" name="IBRION">     2</i>
  <i name="EDIFF">      0.00100000</i>
  <i type="int" name="NSW">   100</i>
  <i type="int" name="ISIF">     2</i>
  <i name="ENCUT">    400.00000000</i>
  <i type="string" name="LREAL"> Auto</i>
  <i type="int" name="ISMEAR">     1</i>
  <i name="SIGMA">      0.10000000</i>
  <i type="logical" name="LWAVE"> F  </i>
  <i type="logical" name="LCHARG"> F  </i>
  <v type="int" name="KPOINT_BSE">    -1     0     0     0</v>
  <i type="int" name="NELM">   100</i>
 </incar>
 <kpoints>
  <generation param="Auto">
   <i name="subdivisionlength">     20.00000000 </i>
   <v type="int" name="divisions">       2        1        1 </v>
   <v name="usershift">      0.00000000       0.00000000       0.00000000 </v>
   <v name="genvec1">      0.50000000       0.00000000       0.00000000 </v>
   <v name="genvec2">      0.00000000       1.00000000       0.00000000 </v>
   <v name="genvec3">      0.00000000       0.00000000       1.00000000 </v>
   <v name="shift">      0.00000000       0.00000000       0.00000000 </v>
  </generation>
  <varray name="kpointlist" >
   <v>       0.00000000       0.00000000       0.00000000 </v>
   <v>       0.50000000       0.00000000       0.00000000 </v>
  </varray>
  <varray name="weights" >
   <v>       0.50000000 </v>
   <v>       0.50000000 </v>
  </varray>
 </kpoints>
 <parameters>
  <separator name="general" >
   <i type="string" name="SYSTEM">Al_Al2O3</i>
   <i type="logical" name="LCOMPAT"> F  </i>
  </separator>
  <separator name="electronic" >
   <i type="string" name="PREC">accura</i>
   <i name="ENMAX">    400.00000000</i>
   <i name="ENAUG">    605.39200000</i>
   <i name="EDIFF">      0.00100000</i>
   <i type="int" name="IALGO">    68</i>
   <i type="int" name="IWAVPR">    11</i>
   <i type="int" name="NBANDS">   368</i>
   <i name="NELECT">    585.00000000</i>
   <i type="int" name="TURBO">     0</i>
   <i type="int" name="IRESTART">     0</i>
   <i type="int" name="NREBOOT">     0</i>
   <i type="int" name="NMIN">     0</i>
   <i name="EREF">      0.00000000</i>
   <separator name="electronic smearing" >
    <i type="int" name="ISMEAR">     1</i>
    <i name="SIGMA">      0.10000000</i>
    <i name="KSPACING">      0.50000000</i>
    <i type="logical" name="KGAMMA"> T  </i>
   </separator>
   <separator name="electronic projectors" >
    <i type="logical" name="LREAL"> T  </i>
    <v name="ROPT">     -0.00025000     -0.00025000</v>
    <i type="int" name="LMAXPAW">  -100</i>
    <i type="int" name="LMAXMIX">     2</i>
    <i type="logical" name="NLSPLINE"> F  </i>
   </separator>
   <separator name="electronic startup" >
    <i type="int" name="ISTART">     0</i>
    <i type="int" name="ICHARG">     2</i>
    <i type="int" name="INIWAV">     1</i>
   </separator>
   <separator name="electronic spin" >
    <i type="int" name="ISPIN">     1</i>
    <i type="logical" name="LNONCOLLINEAR"> F  </i>
    <v name="MAGMOM">      1.00000000      1.00000000      1.00000000      1.00000000      1.00000000      1.00000000      1.00000000      1.00000000      1.00000000      1.00000000      1.00000000      1.00000000      1.00000000      1.00000000      1.00000000      1.00000000      1.00000000      1.00000000      1.00000000      1.00000000
      1.00000000      1.00000000      1.00000000      1.00000000      1.00000000      1.00000000      1.00000000      1.00000000      1.00000000      1.00000000      1.00000000      1.00000000      1.00000000      1.00000000      1.00000000      1.00000000      1.00000000      1.00000000      1.00000000      1.00000000
      1.00000000      1.00000000      1.00000000      1.00000000      1.00000000      1.00000000      1.00000000      1.00000000      1.00000000      1.00000000      1.00000000      1.00000000      1.00000000      1.00000000      1.00000000      1.00000000      1.00000000      1.00000000      1.00000000      1.00000000
      1.00000000      1.00000000      1.00000000      1.00000000      1.00000000      1.00000000      1.00000000      1.00000000      1.00000000      1.00000000      1.00000000      1.00000000      1.00000000      1.00000000      1.00000000      1.00000000      1.00000000      1.00000000      1.00000000      1.00000000
      1.00000000      1.00000000      1.00000000      1.00000000      1.00000000      1.00000000      1.00000000      1.00000000      1.00000000      1.00000000      1.00000000      1.00000000      1.00000000      1.00000000      1.00000000      1.00000000      1.00000000      1.00000000      1.00000000      1.00000000
      1.00000000      1.00000000      1.00000000      1.00000000      1.00000000      1.00000000      1.00000000      1.00000000      1.00000000      1.00000000      1.00000000      1.00000000      1.00000000      1.00000000      1.00000000      1.00000000      1.00000000      1.00000000      1.00000000      1.00000000
      1.00000000      1.00000000      1.00000000      1.00000000      1.00000000      1.00000000      1.00000000      1.00000000      1.00000000      1.00000000      1.00000000      1.00000000      1.00000000      1.00000000      1.00000000      1.00000000      1.00000000      1.00000000      1.00000000      1.00000000
      1.00000000      1.00000000      1.00000000      1.00000000      1.00000000</v>
    <i name="NUPDOWN">     -1.00000000</i>
    <i type="logical" name="LSORBIT"> F  </i>
    <v name="SAXIS">      0.00000000      0.00000000      1.00000000</v>
    <i type="logical" name="LSPIRAL"> F  </i>
    <v name="QSPIRAL">      0.00000000      0.00000000      0.00000000</v>
    <i type="logical" name="LZEROZ"> F  </i>
   </separator>
   <separator name="electronic exchange-correlation" >
    <i type="logical" name="LASPH"> F  </i>
    <i type="logical" name="LMETAGGA"> F  </i>
   </separator>
   <separator name="electronic convergence" >
    <i type="int" name="NELM">   100</i>
    <i type="int" name="NELMDL">    -5</i>
    <i type="int" name="NELMIN">     2</i>
    <i name="ENINI">    400.00000000</i>
    <separator name="electronic convergence detail" >
     <i type="logical" name="LDIAG"> T  </i>
     <i type="logical" name="LSUBROT"> F  </i>
     <i name="WEIMIN">      0.00100000</i>
     <i name="EBREAK">      0.00000068</i>
     <i name="DEPER">      0.30000000</i>
     <i type="int" name="NRMM">     4</i>
     <i name="TIME">      0.40000000</i>
    </separator>
   </separator>
   <separator name="electronic mixer" >
    <i name="AMIX">      0.40000000</i>
    <i name="BMIX">      1.00000000</i>
    <i name="AMIN">      0.10000000</i>
    <i name="AMIX_MAG">      1.60000000</i>
    <i name="BMIX_MAG">      1.00000000</i>
    <separator name="electronic mixer details" >
     <i type="int" name="IMIX">     4</i>
     <i type="logical" name="MIXFIRST"> F  </i>
     <i type="int" name="MAXMIX">   -45</i>
     <i name="WC">    100.00000000</i>
     <i type="int" name="INIMIX">     1</i>
     <i type="int" name="MIXPRE">     1</i>
     <i type="int" name="MREMOVE">     5</i>
    </separator>
   </separator>
   <separator name="electronic dipolcorrection" >
    <i type="logical" name="LDIPOL"> F  </i>
    <i type="logical" name="LMONO"> F  </i>
    <i type="int" name="IDIPOL">     0</i>
    <i name="EPSILON">      1.00000000</i>
    <v name="DIPOL">   -100.00000000   -100.00000000   -100.00000000</v>
    <i name="EFIELD">      0.00000000</i>
   </separator>
  </separator>
  <separator name="grids" >
   <i type="int" name="NGX">    56</i>
   <i type="int" name="NGY">    96</i>
   <i type="int" name="NGZ">   108</i>
   <i type="int" name="NGXF">   112</i>
   <i type="int" name="NGYF">   192</i>
   <i type="int" name="NGZF">   216</i>
   <i type="logical" name="ADDGRID"> F  </i>
  </separator>
  <separator name="ionic" >
   <i type="int" name="NSW">   100</i>
   <i type="int" name="IBRION">     2</i>
   <i type="int" name="ISIF">     2</i>
   <i name="PSTRESS">      0.00000000</i>
   <i name="EDIFFG">      0.01000000</i>
   <i type="int" name="NFREE">     1</i>
   <i name="POTIM">      0.50000000</i>
   <i name="SMASS">     -3.00000000</i>
   <i name="SCALEE">      1.00000000</i>
  </separator>
  <separator name="ionic md" >
   <i name="TEBEG">      0.00010000</i>
   <i name="TEEND">      0.00010000</i>
   <i type="int" name="NBLOCK">     1</i>
   <i type="int" name="KBLOCK">   100</i>
   <i type="int" name="NPACO">   256</i>
   <i name="APACO">     16.00000000</i>
  </separator>
  <separator name="symmetry" >
   <i type="int" name="ISYM">     2</i>
   <i name="SYMPREC">      0.00001000</i>
  </separator>
  <separator name="dos" >
   <i type="logical" name="LORBIT"> F  </i>
   <v name="RWIGS">     -1.00000000     -1.00000000</v>
   <i type="int" name="NEDOS">   301</i>
   <i name="EMIN">     10.00000000</i>
   <i name="EMAX">    -10.00000000</i>
   <i name="EFERMI">      0.00000000</i>
  </separator>
  <separator name="writing" >
   <i type="int" name="NWRITE">     2</i>
   <i type="logical" name="LWAVE"> F  </i>
   <i type="logical" name="LCHARG"> F  </i>
   <i type="logical" name="LPARD"> F  </i>
   <i type="logical" name="LVTOT"> F  </i>
   <i type="logical" name="LVHAR"> F  </i>
   <i type="logical" name="LELF"> F  </i>
   <i type="logical" name="LOPTICS"> F  </i>
   <v name="STM">      0.00000000      0.00000000      0.00000000      0.00000000      0.00000000      0.00000000      0.00000000</v>
  </separator>
  <separator name="performance" >
   <i type="int" name="NPAR">     8</i>
   <i type="int" name="NSIM">     4</i>
   <i type="int" name="NBLK">    -1</i>
   <i type="logical" name="LPLANE"> T  </i>
   <i type="logical" name="LSCALAPACK"> T  </i>
   <i type="logical" name="LSCAAWARE"> F  </i>
   <i type="logical" name="LSCALU"> F  </i>
   <i type="logical" name="LASYNC"> F  </i>
   <i type="logical" name="LORBITALREAL"> F  </i>
  </separator>
  <separator name="miscellaneous" >
   <i type="int" name="IDIOT">     3</i>
   <i type="logical" name="LMUSIC"> F  </i>
   <v name="POMASS">     26.98100000     16.00000000</v>
   <v name="DARWINR">      0.00000000      0.00000000</v>
   <v name="DARWINV">      1.00000000      1.00000000</v>
   <i type="logical" name="LCORR"> T  </i>
  </separator>
  <i type="logical" name="GGA_COMPAT"> T  </i>
  <i type="logical" name="LBERRY"> F  </i>
  <i type="int" name="ICORELEVEL">     0</i>
  <i type="logical" name="LDAU"> F  </i>
  <i type="int" name="I_CONSTRAINED_M">     0</i>
  <separator name="electronic exchange-correlation" >
   <i type="string" name="GGA">--</i>
   <i type="int" name="VOSKOWN">     0</i>
   <i type="logical" name="LHFCALC"> F  </i>
   <i type="string" name="PRECFOCK"></i>
   <i type="logical" name="LSYMGRAD"> F  </i>
   <i type="logical" name="LHFONE"> F  </i>
   <i type="logical" name="LRHFCALC"> F  </i>
   <i type="logical" name="LTHOMAS"> F  </i>
   <i type="logical" name="LMODELHF"> F  </i>
   <i name="ENCUT4O">     -1.00000000</i>
   <i type="int" name="EXXOEP">     0</i>
   <i type="int" name="FOURORBIT">     0</i>
   <i name="AEXX">      0.00000000</i>
   <i name="HFALPHA">      0.00000000</i>
   <i name="MCALPHA">      0.00000000</i>
   <i name="ALDAX">      1.00000000</i>
   <i name="AGGAX">      1.00000000</i>
   <i name="ALDAC">      1.00000000</i>
   <i name="AGGAC">      1.00000000</i>
   <i type="int" name="NKREDX">     1</i>
   <i type="int" name="NKREDY">     1</i>
   <i type="int" name="NKREDZ">     1</i>
   <i type="logical" name="SHIFTRED"> F  </i>
   <i type="logical" name="ODDONLY"> F  </i>
   <i type="logical" name="EVENONLY"> F  </i>
   <i type="int" name="LMAXFOCK">     0</i>
   <i type="int" name="NMAXFOCKAE">     0</i>
   <i type="logical" name="LFOCKAEDFT"> F  </i>
   <i name="HFSCREEN">      0.00000000</i>
   <i name="HFSCREENC">      0.00000000</i>
   <i type="int" name="NBANDSGWLOW">     0</i>
  </separator>
  <separator name="vdW DFT" >
   <i type="logical" name="LUSE_VDW"> F  </i>
   <i name="Zab_VDW">     -0.84910000</i>
   <i name="PARAM1">      0.12340000</i>
   <i name="PARAM2">      1.00000000</i>
   <i name="PARAM3">      0.00000000</i>
  </separator>
  <separator name="model GW" >
   <i type="int" name="MODEL_GW">     0</i>
   <i name="MODEL_EPS0">      8.44289024</i>
   <i name="MODEL_ALPHA">      1.00000000</i>
  </separator>
  <separator name="linear response parameters" >
   <i type="logical" name="LEPSILON"> F  </i>
   <i type="logical" name="LRPA"> F  </i>
   <i type="logical" name="LNABLA"> F  </i>
   <i type="logical" name="LVEL"> F  </i>
   <i type="int" name="KINTER">     0</i>
   <i name="CSHIFT">      0.10000000</i>
   <i name="OMEGAMAX">     -1.00000000</i>
   <i name="DEG_THRESHOLD">      0.00200000</i>
  </separator>
  <separator name="orbital magnetization" >
   <i type="logical" name="NUCIND"> F  </i>
   <v name="MAGPOS">      0.00000000      0.00000000      0.00000000</v>
   <i type="logical" name="LNICSALL"> T  </i>
   <i type="logical" name="ORBITALMAG"> F  </i>
   <i type="logical" name="LMAGBLOCH"> F  </i>
   <i type="logical" name="LCHIMAG"> F  </i>
   <i type="logical" name="LGAUGE"> T  </i>
   <i type="int" name="MAGATOM">     0</i>
   <v name="MAGDIPOL">      0.00000000      0.00000000      0.00000000</v>
   <v name="AVECCONST">      0.00000000      0.00000000      0.00000000</v>
  </separator>
  <separator name="response functions" >
   <i type="logical" name="LADDER"> F  </i>
   <i type="logical" name="LFXC"> F  </i>
   <i type="logical" name="LHARTREE"> T  </i>
   <i type="int" name="IBSE">     0</i>
   <v type="int" name="KPOINT">    -1     0     0     0</v>
   <i type="logical" name="LTCTE"> F  </i>
   <i type="logical" name="LTETE"> F  </i>
   <i type="logical" name="LTRIPLET"> F  </i>
   <i type="logical" name="LFXCEPS"> F  </i>
   <i type="logical" name="LFXHEG"> F  </i>
   <i type="int" name="NATURALO">     0</i>
   <i type="logical" name="L2ORDER"> F  </i>
   <i type="logical" name="LUSEW"> F  </i>
   <i name="ENCUTGW">     -2.00000000</i>
   <i name="ENCUTGWSOFT">     -2.00000000</i>
   <i name="ENCUTLF">     -1.00000000</i>
   <i type="int" name="LMAXMP2">    -1</i>
   <i name="SCISSOR">      0.00000000</i>
   <i type="int" name="NOMEGA">     0</i>
   <i type="int" name="NOMEGAR">     0</i>
   <i type="int" name="NBANDSGW">    -1</i>
   <i type="int" name="NBANDSO">    -1</i>
   <i type="int" name="NBANDSV">    -1</i>
   <i type="int" name="NELM">   100</i>
   <i type="int" name="NELMHF">     1</i>
   <i type="int" name="DIM">     3</i>
   <i type="int" name="ANTIRES">     0</i>
   <i name="OMEGAMAX">    -30.00000000</i>
   <i name="OMEGAMIN">    -30.00000000</i>
   <i name="OMEGATL">   -200.00000000</i>
   <i type="int" name="OMEGAGRID">     0</i>
   <i name="CSHIFT">     -0.10000000</i>
   <i type="logical" name="SELFENERGY"> F  </i>
   <i type="logical" name="LSPECTRAL"> F  </i>
   <i type="logical" name="LSPECTRALGW"> F  </i>
   <i type="logical" name="LSINGLES"> F  </i>
   <i type="logical" name="LFERMIGW"> F  </i>
   <i type="logical" name="ODDONLYGW"> F  </i>
   <i type="logical" name="EVENONLYGW"> F  </i>
   <i type="int" name="NKREDLFX">     1</i>
   <i type="int" name="NKREDLFY">     1</i>
   <i type="int" name="NKREDLFZ">     1</i>
   <i type="int" name="MAXMEM">  1800</i>
   <i type="int" name="TELESCOPE">     0</i>
   <i type="int" name="TAUPAR">     1</i>
   <i type="int" name="OMEGAPAR">    -1</i>
   <i name="LAMBDA">      1.00000000</i>
  </separator>
  <separator name="External order field" >
   <i name="OFIELD_KAPPA">      0.00000000</i>
   <v name="OFIELD_K">      0.00000000      0.00000000      0.00000000</v>
   <i name="OFIELD_Q6_NEAR">      0.00000000</i>
   <i name="OFIELD_Q6_FAR">      0.00000000</i>
   <i name="OFIELD_A">      0.00000000</i>
  </separator>
  <separator name="solvation model" >
   <i type="logical" name="LSOL"> F  </i>
  </separator>
 </parameters>
 <atominfo>
  <atoms>     145 </atoms>
  <types>       2 </types>
  <array name="atoms" >
   <dimension dim="1">ion</dimension>
   <field type="string">element</field>
   <field type="int">atomtype</field>
   <set>
    <rc><c>Al</c><c>   1</c></rc>
    <rc><c>Al</c><c>   1</c></rc>
    <rc><c>Al</c><c>   1</c></rc>
    <rc><c>Al</c><c>   1</c></rc>
    <rc><c>Al</c><c>   1</c></rc>
    <rc><c>Al</c><c>   1</c></rc>
    <rc><c>Al</c><c>   1</c></rc>
    <rc><c>Al</c><c>   1</c></rc>
    <rc><c>Al</c><c>   1</c></rc>
    <rc><c>Al</c><c>   1</c></rc>
    <rc><c>Al</c><c>   1</c></rc>
    <rc><c>Al</c><c>   1</c></rc>
    <rc><c>Al</c><c>   1</c></rc>
    <rc><c>Al</c><c>   1</c></rc>
    <rc><c>Al</c><c>   1</c></rc>
    <rc><c>Al</c><c>   1</c></rc>
    <rc><c>Al</c><c>   1</c></rc>
    <rc><c>Al</c><c>   1</c></rc>
    <rc><c>Al</c><c>   1</c></rc>
    <rc><c>Al</c><c>   1</c></rc>
    <rc><c>Al</c><c>   1</c></rc>
    <rc><c>Al</c><c>   1</c></rc>
    <rc><c>Al</c><c>   1</c></rc>
    <rc><c>Al</c><c>   1</c></rc>
    <rc><c>Al</c><c>   1</c></rc>
    <rc><c>Al</c><c>   1</c></rc>
    <rc><c>Al</c><c>   1</c></rc>
    <rc><c>Al</c><c>   1</c></rc>
    <rc><c>Al</c><c>   1</c></rc>
    <rc><c>Al</c><c>   1</c></rc>
    <rc><c>Al</c><c>   1</c></rc>
    <rc><c>Al</c><c>   1</c></rc>
    <rc><c>Al</c><c>   1</c></rc>
    <rc><c>Al</c><c>   1</c></rc>
    <rc><c>Al</c><c>   1</c></rc>
    <rc><c>Al</c><c>   1</c></rc>
    <rc><c>Al</c><c>   1</c></rc>
    <rc><c>Al</c><c>   1</c></rc>
    <rc><c>Al</c><c>   1</c></rc>
    <rc><c>Al</c><c>   1</c></rc>
    <rc><c>Al</c><c>   1</c></rc>
    <rc><c>Al</c><c>   1</c></rc>
    <rc><c>Al</c><c>   1</c></rc>
    <rc><c>Al</c><c>   1</c></rc>
    <rc><c>Al</c><c>   1</c></rc>
    <rc><c>Al</c><c>   1</c></rc>
    <rc><c>Al</c><c>   1</c></rc>
    <rc><c>Al</c><c>   1</c></rc>
    <rc><c>Al</c><c>   1</c></rc>
    <rc><c>Al</c><c>   1</c></rc>
    <rc><c>Al</c><c>   1</c></rc>
    <rc><c>Al</c><c>   1</c></rc>
    <rc><c>Al</c><c>   1</c></rc>
    <rc><c>Al</c><c>   1</c></rc>
    <rc><c>Al</c><c>   1</c></rc>
    <rc><c>Al</c><c>   1</c></rc>
    <rc><c>Al</c><c>   1</c></rc>
    <rc><c>Al</c><c>   1</c></rc>
    <rc><c>Al</c><c>   1</c></rc>
    <rc><c>Al</c><c>   1</c></rc>
    <rc><c>Al</c><c>   1</c></rc>
    <rc><c>Al</c><c>   1</c></rc>
    <rc><c>Al</c><c>   1</c></rc>
    <rc><c>Al</c><c>   1</c></rc>
    <rc><c>Al</c><c>   1</c></rc>
    <rc><c>Al</c><c>   1</c></rc>
    <rc><c>Al</c><c>   1</c></rc>
    <rc><c>Al</c><c>   1</c></rc>
    <rc><c>Al</c><c>   1</c></rc>
    <rc><c>Al</c><c>   1</c></rc>
    <rc><c>Al</c><c>   1</c></rc>
    <rc><c>Al</c><c>   1</c></rc>
    <rc><c>Al</c><c>   1</c></rc>
    <rc><c>Al</c><c>   1</c></rc>
    <rc><c>Al</c><c>   1</c></rc>
    <rc><c>Al</c><c>   1</c></rc>
    <rc><c>Al</c><c>   1</c></rc>
    <rc><c>Al</c><c>   1</c></rc>
    <rc><c>Al</c><c>   1</c></rc>
    <rc><c>Al</c><c>   1</c></rc>
    <rc><c>Al</c><c>   1</c></rc>
    <rc><c>Al</c><c>   1</c></rc>
    <rc><c>Al</c><c>   1</c></rc>
    <rc><c>Al</c><c>   1</c></rc>
    <rc><c>Al</c><c>   1</c></rc>
    <rc><c>Al</c><c>   1</c></rc>
    <rc><c>Al</c><c>   1</c></rc>
    <rc><c>Al</c><c>   1</c></rc>
    <rc><c>Al</c><c>   1</c></rc>
    <rc><c>Al</c><c>   1</c></rc>
    <rc><c>Al</c><c>   1</c></rc>
    <rc><c>Al</c><c>   1</c></rc>
    <rc><c>Al</c><c>   1</c></rc>
    <rc><c>Al</c><c>   1</c></rc>
    <rc><c>Al</c><c>   1</c></rc>
    <rc><c>O </c><c>   2</c></rc>
    <rc><c>O </c><c>   2</c></rc>
    <rc><c>O </c><c>   2</c></rc>
    <rc><c>O </c><c>   2</c></rc>
    <rc><c>O </c><c>   2</c></rc>
    <rc><c>O </c><c>   2</c></rc>
    <rc><c>O </c><c>   2</c></rc>
    <rc><c>O </c><c>   2</c></rc>
    <rc><c>O </c><c>   2</c></rc>
    <rc><c>O </c><c>   2</c></rc>
    <rc><c>O </c><c>   2</c></rc>
    <rc><c>O </c><c>   2</c></rc>
    <rc><c>O </c><c>   2</c></rc>
    <rc><c>O </c><c>   2</c></rc>
    <rc><c>O </c><c>   2</c></rc>
    <rc><c>O </c><c>   2</c></rc>
    <rc><c>O </c><c>   2</c></rc>
    <rc><c>O </c><c>   2</c></rc>
    <rc><c>O </c><c>   2</c></rc>
    <rc><c>O </c><c>   2</c></rc>
    <rc><c>O </c><c>   2</c></rc>
    <rc><c>O </c><c>   2</c></rc>
    <rc><c>O </c><c>   2</c></rc>
    <rc><c>O </c><c>   2</c></rc>
    <rc><c>O </c><c>   2</c></rc>
    <rc><c>O </c><c>   2</c></rc>
    <rc><c>O </c><c>   2</c></rc>
    <rc><c>O </c><c>   2</c></rc>
    <rc><c>O </c><c>   2</c></rc>
    <rc><c>O </c><c>   2</c></rc>
    <rc><c>O </c><c>   2</c></rc>
    <rc><c>O </c><c>   2</c></rc>
    <rc><c>O </c><c>   2</c></rc>
    <rc><c>O </c><c>   2</c></rc>
    <rc><c>O </c><c>   2</c></rc>
    <rc><c>O </c><c>   2</c></rc>
    <rc><c>O </c><c>   2</c></rc>
    <rc><c>O </c><c>   2</c></rc>
    <rc><c>O </c><c>   2</c></rc>
    <rc><c>O </c><c>   2</c></rc>
    <rc><c>O </c><c>   2</c></rc>
    <rc><c>O </c><c>   2</c></rc>
    <rc><c>O </c><c>   2</c></rc>
    <rc><c>O </c><c>   2</c></rc>
    <rc><c>O </c><c>   2</c></rc>
    <rc><c>O </c><c>   2</c></rc>
    <rc><c>O </c><c>   2</c></rc>
    <rc><c>O </c><c>   2</c></rc>
    <rc><c>O </c><c>   2</c></rc>
    <rc><c>O </c><c>   2</c></rc>
   </set>
  </array>
  <array name="atomtypes" >
   <dimension dim="1">type</dimension>
   <field type="int">atomspertype</field>
   <field type="string">element</field>
   <field>mass</field>
   <field>valence</field>
   <field type="string">pseudopotential</field>
   <set>
    <rc><c>  95</c><c>Al</c><c>     26.98100000</c><c>      3.00000000</c><c>  PAW_PBE Al 04Jan2001                  </c></rc>
    <rc><c>  50</c><c>O </c><c>     16.00000000</c><c>      6.00000000</c><c>  PAW_PBE O 08Apr2002                   </c></rc>
   </set>
  </array>
 </atominfo>
 <structure name="initialpos" >
  <crystal>
   <varray name="basis" >
    <v>       8.42830000       0.00000000       0.00000000 </v>
    <v>       0.00000000      14.59820000       0.00000000 </v>
    <v>       0.00000000       0.00000000      16.58321000 </v>
   </varray>
   <i name="volume">   2040.36514222 </i>
   <varray name="rec_basis" >
    <v>       0.11864789       0.00000000       0.00000000 </v>
    <v>       0.00000000       0.06850160       0.00000000 </v>
    <v>       0.00000000       0.00000000       0.06030196 </v>
   </varray>
  </crystal>
  <varray name="positions" >
   <v>       0.83333500       0.67754300       0.78930800 </v>
   <v>       0.00000000       0.84420700       0.78999400 </v>
   <v>       0.16666700       0.67754300       0.78930800 </v>
   <v>       0.66666800       0.84420700       0.78999400 </v>
   <v>       0.50000100       0.67754300       0.78930800 </v>
   <v>       0.33333400       0.84420700       0.78999400 </v>
   <v>       0.68026100       0.83333600       0.08660300 </v>
   <v>       0.01359400       0.83333600       0.18854400 </v>
   <v>       0.18025900       0.00000000       0.08660300 </v>
   <v>       0.51359300       0.00000000       0.18854400 </v>
   <v>       0.68026100       0.16666700       0.08660300 </v>
   <v>       0.18025900       0.33333300       0.08660300 </v>
   <v>       0.51359300       0.33333300       0.18854400 </v>
   <v>       0.01359400       0.16666700       0.18854400 </v>
   <v>       0.68026100       0.50000000       0.08660300 </v>
   <v>       0.18025900       0.66666600       0.08660300 </v>
   <v>       0.51359300       0.66666600       0.18854400 </v>
   <v>       0.01359400       0.50000000       0.18854400 </v>
   <v>       0.01359400       0.16666700       0.32676700 </v>
   <v>       0.84692800       0.33333300       0.21815900 </v>
   <v>       0.51359300       0.66666600       0.32676700 </v>
   <v>       0.34692800       0.50000000       0.21815900 </v>
   <v>       0.01359400       0.50000000       0.32676700 </v>
   <v>       0.51359300       0.00000000       0.32676700 </v>
   <v>       0.51359300       0.33333300       0.32676700 </v>
   <v>       0.34692800       0.50000000       0.35638700 </v>
   <v>       0.01359400       0.83333600       0.32676700 </v>
   <v>       0.56895200       0.92747100       0.48050300 </v>
   <v>       0.51359300       0.00000000       0.50475100 </v>
   <v>       0.05634700       0.77558200       0.47218300 </v>
   <v>       0.34692800       0.83333600       0.35638700 </v>
   <v>       0.84692800       0.33333300       0.52844300 </v>
   <v>       0.01359400       0.50000000       0.50475100 </v>
   <v>       0.34692800       0.16666700       0.35638700 </v>
   <v>       0.84692800       0.66666700       0.35638700 </v>
   <v>       0.84692800       0.66666700       0.21815900 </v>
   <v>       0.34692800       0.83333600       0.21815900 </v>
   <v>       0.34692800       0.16666700       0.21815900 </v>
   <v>       0.84692800       0.00000000       0.21815900 </v>
   <v>       0.84692800       0.33333300       0.35638700 </v>
   <v>       0.34692800       0.83333600       0.05698300 </v>
   <v>       0.34692800       0.16666700       0.05698300 </v>
   <v>       0.34692800       0.50000000       0.05698300 </v>
   <v>       0.84692800       0.33333300       0.05698300 </v>
   <v>       0.84692800       0.66666700       0.05698300 </v>
   <v>       0.84692800       0.00000000       0.05698300 </v>
   <v>       0.84692800       0.00000000       0.35638700 </v>
   <v>       0.33333400       0.06715700       0.64645100 </v>
   <v>       0.83333500       0.23382400       0.64714600 </v>
   <v>       0.33333400       0.40049000       0.64782600 </v>
   <v>       0.83333500       0.56715700       0.64851200 </v>
   <v>       0.33333400       0.73382300       0.64920200 </v>
   <v>       0.83333500       0.90048800       0.64988900 </v>
   <v>       0.00000000       0.06715700       0.64645100 </v>
   <v>       0.00000000       0.95459700       0.93078000 </v>
   <v>       0.50000100       0.23382400       0.64714600 </v>
   <v>       0.50000100       0.78792600       0.93010000 </v>
   <v>       0.00000000       0.40049000       0.64782600 </v>
   <v>       0.00000000       0.62126200       0.92941400 </v>
   <v>       0.50000100       0.56715700       0.64851200 </v>
   <v>       0.50000100       0.45459500       0.92872500 </v>
   <v>       0.00000000       0.73382300       0.64920200 </v>
   <v>       0.00000000       0.28792900       0.92803900 </v>
   <v>       0.50000100       0.90048800       0.64988900 </v>
   <v>       0.50000100       0.12126200       0.92735000 </v>
   <v>       0.66666800       0.06715700       0.64645100 </v>
   <v>       0.66666800       0.95459700       0.93078000 </v>
   <v>       0.16666700       0.23382400       0.64714600 </v>
   <v>       0.16666700       0.78792600       0.93010000 </v>
   <v>       0.66666800       0.40049000       0.64782600 </v>
   <v>       0.66666800       0.62126200       0.92941400 </v>
   <v>       0.16666700       0.56715700       0.64851200 </v>
   <v>       0.16666700       0.45459500       0.92872500 </v>
   <v>       0.66666800       0.73382300       0.64920200 </v>
   <v>       0.66666800       0.28792900       0.92803900 </v>
   <v>       0.16666700       0.90048800       0.64988900 </v>
   <v>       0.16666700       0.12126200       0.92735000 </v>
   <v>       0.33333400       0.95459700       0.93078000 </v>
   <v>       0.83333500       0.78792600       0.93010000 </v>
   <v>       0.33333400       0.62126200       0.92941400 </v>
   <v>       0.83333500       0.45459500       0.92872500 </v>
   <v>       0.33333400       0.28792900       0.92803900 </v>
   <v>       0.50000100       0.01087700       0.78655700 </v>
   <v>       0.83333500       0.01087700       0.78655700 </v>
   <v>       0.16666700       0.01087700       0.78655700 </v>
   <v>       0.83333500       0.12126200       0.92735000 </v>
   <v>       0.66666800       0.17754300       0.78724600 </v>
   <v>       0.00000000       0.17754300       0.78724600 </v>
   <v>       0.33333400       0.17754300       0.78724600 </v>
   <v>       0.83333500       0.34421000       0.78793300 </v>
   <v>       0.16666700       0.34421000       0.78793300 </v>
   <v>       0.66666800       0.51087600       0.78861900 </v>
   <v>       0.00000000       0.51087600       0.78861900 </v>
   <v>       0.50000100       0.34421000       0.78793300 </v>
   <v>       0.33333400       0.51087600       0.78861900 </v>
   <v>       0.69385400       0.94897300       0.13757100 </v>
   <v>       0.84692800       0.76871800       0.13757100 </v>
   <v>       0.50000000       0.78230900       0.13757100 </v>
   <v>       0.00000000       0.94897300       0.13757100 </v>
   <v>       0.19385400       0.11564200       0.13757100 </v>
   <v>       0.34692800       0.93538200       0.13757100 </v>
   <v>       0.69385400       0.28230900       0.13757100 </v>
   <v>       0.84692800       0.10204900       0.13757100 </v>
   <v>       0.50000000       0.11564300       0.13757100 </v>
   <v>       0.00000000       0.28230900       0.13757100 </v>
   <v>       0.19385400       0.44897600       0.13757100 </v>
   <v>       0.34692800       0.26871500       0.13757100 </v>
   <v>       0.69385400       0.61564200       0.13757100 </v>
   <v>       0.84692800       0.43538200       0.13757100 </v>
   <v>       0.50000000       0.44897600       0.13757100 </v>
   <v>       0.00000000       0.61564200       0.13757100 </v>
   <v>       0.19385400       0.78230900       0.13757100 </v>
   <v>       0.34692800       0.60204800       0.13757100 </v>
   <v>       0.86052100       0.21769100       0.26913200 </v>
   <v>       0.16666700       0.21769100       0.26913200 </v>
   <v>       0.01359400       0.06461800       0.26913200 </v>
   <v>       0.51359300       0.56461800       0.26913200 </v>
   <v>       0.36052100       0.71769100       0.26913200 </v>
   <v>       0.66666700       0.71769100       0.26913200 </v>
   <v>       0.01359400       0.39795100       0.26913200 </v>
   <v>       0.16666700       0.55102500       0.26913200 </v>
   <v>       0.86052100       0.55102500       0.26913200 </v>
   <v>       0.51359300       0.89795300       0.26913200 </v>
   <v>       0.36052100       0.05102500       0.26913200 </v>
   <v>       0.66666700       0.05102500       0.26913200 </v>
   <v>       0.51359300       0.23128500       0.26913200 </v>
   <v>       0.36052100       0.38435800       0.26913200 </v>
   <v>       0.66666700       0.38435800       0.26913200 </v>
   <v>       0.50000000       0.78230900       0.46397200 </v>
   <v>       0.24245800       0.44887700       0.47728100 </v>
   <v>       0.18550600       0.42958900       0.39559700 </v>
   <v>       0.16666700       0.88435600       0.26913200 </v>
   <v>       0.86052100       0.88435600       0.26913200 </v>
   <v>       0.01359400       0.73128200       0.26913200 </v>
   <v>       0.50367200       0.10281900       0.43690900 </v>
   <v>       0.18548000       0.08179800       0.38605500 </v>
   <v>       0.06435000       0.92266200       0.41062800 </v>
   <v>       0.20802900       0.94701400       0.40909200 </v>
   <v>       0.87867100       0.78180900       0.40160900 </v>
   <v>       0.16571800       0.77223900       0.38400600 </v>
   <v>       0.49949500       0.43832900       0.43607400 </v>
   <v>       0.34400100       0.28704100       0.38917400 </v>
   <v>       0.66346100       0.26827800       0.39211000 </v>
   <v>       0.69297700       0.28312800       0.47927400 </v>
   <v>       0.05341600       0.63734400       0.40240300 </v>
  </varray>
  <varray name="selective"  type="logical" >
   <v type="logical" >  F  F  F </v>
   <v type="logical" >  F  F  F </v>
   <v type="logical" >  F  F  F </v>
   <v type="logical" >  F  F  F </v>
   <v type="logical" >  F  F  F </v>
   <v type="logical" >  F  F  F </v>
   <v type="logical" >  F  F  F </v>
   <v type="logical" >  F  F  F </v>
   <v type="logical" >  F  F  F </v>
   <v type="logical" >  F  F  F </v>
   <v type="logical" >  F  F  F </v>
   <v type="logical" >  F  F  F </v>
   <v type="logical" >  F  F  F </v>
   <v type="logical" >  F  F  F </v>
   <v type="logical" >  F  F  F </v>
   <v type="logical" >  F  F  F </v>
   <v type="logical" >  F  F  F </v>
   <v type="logical" >  F  F  F </v>
   <v type="logical" >  F  F  F </v>
   <v type="logical" >  F  F  F </v>
   <v type="logical" >  F  F  F </v>
   <v type="logical" >  F  F  F </v>
   <v type="logical" >  F  F  F </v>
   <v type="logical" >  F  F  F </v>
   <v type="logical" >  F  F  F </v>
   <v type="logical" >  F  F  F </v>
   <v type="logical" >  F  F  F </v>
   <v type="logical" >  T  T  T </v>
   <v type="logical" >  T  T  T </v>
   <v type="logical" >  T  T  T </v>
   <v type="logical" >  F  F  F </v>
   <v type="logical" >  T  T  T </v>
   <v type="logical" >  T  T  T </v>
   <v type="logical" >  F  F  F </v>
   <v type="logical" >  F  F  F </v>
   <v type="logical" >  F  F  F </v>
   <v type="logical" >  F  F  F </v>
   <v type="logical" >  F  F  F </v>
   <v type="logical" >  F  F  F </v>
   <v type="logical" >  F  F  F </v>
   <v type="logical" >  F  F  F </v>
   <v type="logical" >  F  F  F </v>
   <v type="logical" >  F  F  F </v>
   <v type="logical" >  F  F  F </v>
   <v type="logical" >  F  F  F </v>
   <v type="logical" >  F  F  F </v>
   <v type="logical" >  F  F  F </v>
   <v type="logical" >  F  F  F </v>
   <v type="logical" >  F  F  F </v>
   <v type="logical" >  F  F  F </v>
   <v type="logical" >  F  F  F </v>
   <v type="logical" >  F  F  F </v>
   <v type="logical" >  F  F  F </v>
   <v type="logical" >  F  F  F </v>
   <v type="logical" >  F  F  F </v>
   <v type="logical" >  F  F  F </v>
   <v type="logical" >  F  F  F </v>
   <v type="logical" >  F  F  F </v>
   <v type="logical" >  F  F  F </v>
   <v type="logical" >  F  F  F </v>
   <v type="logical" >  F  F  F </v>
   <v type="logical" >  F  F  F </v>
   <v type="logical" >  F  F  F </v>
   <v type="logical" >  F  F  F </v>
   <v type="logical" >  F  F  F </v>
   <v type="logical" >  F  F  F </v>
   <v type="logical" >  F  F  F </v>
   <v type="logical" >  F  F  F </v>
   <v type="logical" >  F  F  F </v>
   <v type="logical" >  F  F  F </v>
   <v type="logical" >  F  F  F </v>
   <v type="logical" >  F  F  F </v>
   <v type="logical" >  F  F  F </v>
   <v type="logical" >  F  F  F </v>
   <v type="logical" >  F  F  F </v>
   <v type="logical" >  F  F  F </v>
   <v type="logical" >  F  F  F </v>
   <v type="logical" >  F  F  F </v>
   <v type="logical" >  F  F  F </v>
   <v type="logical" >  F  F  F </v>
   <v type="logical" >  F  F  F </v>
   <v type="logical" >  F  F  F </v>
   <v type="logical" >  F  F  F </v>
   <v type="logical" >  F  F  F </v>
   <v type="logical" >  F  F  F </v>
   <v type="logical" >  F  F  F </v>
   <v type="logical" >  F  F  F </v>
   <v type="logical" >  F  F  F </v>
   <v type="logical" >  F  F  F </v>
   <v type="logical" >  F  F  F </v>
   <v type="logical" >  F  F  F </v>
   <v type="logical" >  F  F  F </v>
   <v type="logical" >  F  F  F </v>
   <v type="logical" >  F  F  F </v>
   <v type="logical" >  F  F  F </v>
   <v type="logical" >  F  F  F </v>
   <v type="logical" >  F  F  F </v>
   <v type="logical" >  F  F  F </v>
   <v type="logical" >  F  F  F </v>
   <v type="logical" >  F  F  F </v>
   <v type="logical" >  F  F  F </v>
   <v type="logical" >  F  F  F </v>
   <v type="logical" >  F  F  F </v>
   <v type="logical" >  F  F  F </v>
   <v type="logical" >  F  F  F </v>
   <v type="logical" >  F  F  F </v>
   <v type="logical" >  F  F  F </v>
   <v type="logical" >  F  F  F </v>
   <v type="logical" >  F  F  F </v>
   <v type="logical" >  F  F  F </v>
   <v type="logical" >  F  F  F </v>
   <v type="logical" >  F  F  F </v>
   <v type="logical" >  F  F  F </v>
   <v type="logical" >  F  F  F </v>
   <v type="logical" >  F  F  F </v>
   <v type="logical" >  F  F  F </v>
   <v type="logical" >  F  F  F </v>
   <v type="logical" >  F  F  F </v>
   <v type="logical" >  F  F  F </v>
   <v type="logical" >  F  F  F </v>
   <v type="logical" >  F  F  F </v>
   <v type="logical" >  F  F  F </v>
   <v type="logical" >  F  F  F </v>
   <v type="logical" >  F  F  F </v>
   <v type="logical" >  F  F  F </v>
   <v type="logical" >  F  F  F </v>
   <v type="logical" >  F  F  F </v>
   <v type="logical" >  F  F  F </v>
   <v type="logical" >  T  T  T </v>
   <v type="logical" >  T  T  T </v>
   <v type="logical" >  F  F  F </v>
   <v type="logical" >  F  F  F </v>
   <v type="logical" >  F  F  F </v>
   <v type="logical" >  F  F  F </v>
   <v type="logical" >  F  F  F </v>
   <v type="logical" >  F  F  F </v>
   <v type="logical" >  F  F  F </v>
   <v type="logical" >  F  F  F </v>
   <v type="logical" >  F  F  F </v>
   <v type="logical" >  F  F  F </v>
   <v type="logical" >  F  F  F </v>
   <v type="logical" >  F  F  F </v>
   <v type="logical" >  F  F  F </v>
   <v type="logical" >  T  T  T </v>
   <v type="logical" >  F  F  F </v>
  </varray>
  <nose>
   <v>      -3.00000000       0.00000000       0.00010000       0.00010000 </v>
  </nose>
 </structure>
 <calculation>
  <scstep>
   <time name="dav">    6.10    6.10</time>
   <time name="total">    6.27    6.28</time>
   <energy>
    <i name="alphaZ">    301.50535650 </i>
    <i name="ewald">   3667.25970811 </i>
    <i name="hartreedc"> -31761.19362709 </i>
    <i name="XCdc">  -1094.61296952 </i>
    <i name="pawpsdc">  23616.48877148 </i>
    <i name="pawaedc"> -20670.74134970 </i>
    <i name="eentropy">     -0.01700702 </i>
    <i name="bandstr">   1906.21041028 </i>
    <i name="atom">  26699.28446234 </i>
    <i name="e_fr_energy">   2664.18375539 </i>
    <i name="e_wo_entrp">   2664.20076241 </i>
    <i name="e_0_energy">   2664.18942440 </i>
   </energy>
  </scstep>
  <scstep>
   <time name="dav">    7.48    7.49</time>
   <time name="total">    7.49    7.50</time>
   <energy>
    <i name="e_fr_energy">   -436.98217164 </i>
    <i name="e_wo_entrp">   -436.95419683 </i>
    <i name="e_0_energy">   -436.97284670 </i>
   </energy>
  </scstep>
  <scstep>
   <time name="dav">    6.73    6.74</time>
   <time name="total">    6.74    6.75</time>
   <energy>
    <i name="e_fr_energy">   -804.70941516 </i>
    <i name="e_wo_entrp">   -804.69202242 </i>
    <i name="e_0_energy">   -804.70361758 </i>
   </energy>
  </scstep>
  <scstep>
   <time name="dav">    6.89    6.97</time>
   <time name="total">    6.90    6.98</time>
   <energy>
    <i name="e_fr_energy">   -814.01386724 </i>
    <i name="e_wo_entrp">   -813.99155602 </i>
    <i name="e_0_energy">   -814.00643017 </i>
   </energy>
  </scstep>
  <scstep>
   <time name="dav">    7.42    7.49</time>
   <time name="total">    7.85    7.93</time>
   <energy>
    <i name="e_fr_energy">   -814.28038645 </i>
    <i name="e_wo_entrp">   -814.25771375 </i>
    <i name="e_0_energy">   -814.27282888 </i>
   </energy>
  </scstep>
  <scstep>
   <time name="diag">    1.07    1.07</time>
   <time name="diis">    3.29    3.29</time>
   <time name="orth">    0.25    0.26</time>
   <time name="total">    5.16    5.20</time>
   <energy>
    <i name="e_fr_energy">   -746.68311583 </i>
    <i name="e_wo_entrp">   -746.70729165 </i>
    <i name="e_0_energy">   -746.69117444 </i>
   </energy>
  </scstep>
  <scstep>
   <time name="diag">    1.10    1.10</time>
   <time name="diis">    3.29    3.29</time>
   <time name="orth">    0.26    0.26</time>
   <time name="total">    5.27    5.28</time>
   <energy>
    <i name="e_fr_energy">   -754.77687978 </i>
    <i name="e_wo_entrp">   -754.79235073 </i>
    <i name="e_0_energy">   -754.78203676 </i>
   </energy>
  </scstep>
  <scstep>
   <time name="diag">    1.07    1.07</time>
   <time name="diis">    3.27    3.27</time>
   <time name="orth">    0.26    0.26</time>
   <time name="total">    5.18    5.18</time>
   <energy>
    <i name="e_fr_energy">   -740.19312253 </i>
    <i name="e_wo_entrp">   -740.21442491 </i>
    <i name="e_0_energy">   -740.20022332 </i>
   </energy>
  </scstep>
  <scstep>
   <time name="diag">    1.01    1.07</time>
   <time name="diis">    3.14    3.32</time>
   <time name="orth">    0.25    0.26</time>
   <time name="total">    4.95    5.22</time>
   <energy>
    <i name="e_fr_energy">   -735.95604923 </i>
    <i name="e_wo_entrp">   -735.94961291 </i>
    <i name="e_0_energy">   -735.95390379 </i>
   </energy>
  </scstep>
  <scstep>
   <time name="diag">    1.02    1.08</time>
   <time name="diis">    3.12    3.27</time>
   <time name="orth">    0.25    0.26</time>
   <time name="total">    4.99    5.23</time>
   <energy>
    <i name="e_fr_energy">   -738.70370188 </i>
    <i name="e_wo_entrp">   -738.68808934 </i>
    <i name="e_0_energy">   -738.69849770 </i>
   </energy>
  </scstep>
  <scstep>
   <time name="diag">    1.01    1.06</time>
   <time name="diis">    3.14    3.29</time>
   <time name="orth">    0.25    0.26</time>
   <time name="total">    4.97    5.20</time>
   <energy>
    <i name="e_fr_energy">   -735.32035822 </i>
    <i name="e_wo_entrp">   -735.29498315 </i>
    <i name="e_0_energy">   -735.31189986 </i>
   </energy>
  </scstep>
  <scstep>
   <time name="diag">    1.07    1.08</time>
   <time name="diis">    3.25    3.30</time>
   <time name="orth">    0.26    0.26</time>
   <time name="total">    5.16    5.24</time>
   <energy>
    <i name="e_fr_energy">   -734.38426213 </i>
    <i name="e_wo_entrp">   -734.38352279 </i>
    <i name="e_0_energy">   -734.38401568 </i>
   </energy>
  </scstep>
  <scstep>
   <time name="diag">    1.06    1.08</time>
   <time name="diis">    3.22    3.28</time>
   <time name="orth">    0.26    0.26</time>
   <time name="total">    5.12    5.22</time>
   <energy>
    <i name="e_fr_energy">   -734.16733823 </i>
    <i name="e_wo_entrp">   -734.16753323 </i>
    <i name="e_0_energy">   -734.16740323 </i>
   </energy>
  </scstep>
  <scstep>
   <time name="diag">    1.05    1.07</time>
   <time name="diis">    3.26    3.32</time>
   <time name="orth">    0.26    0.26</time>
   <time name="total">    5.16    5.25</time>
   <energy>
    <i name="e_fr_energy">   -734.17871986 </i>
    <i name="e_wo_entrp">   -734.18680805 </i>
    <i name="e_0_energy">   -734.18141592 </i>
   </energy>
  </scstep>
  <scstep>
   <time name="diag">    1.05    1.07</time>
   <time name="diis">    3.23    3.29</time>
   <time name="orth">    0.25    0.26</time>
   <time name="total">    5.12    5.22</time>
   <energy>
    <i name="e_fr_energy">   -733.99621514 </i>
    <i name="e_wo_entrp">   -734.00264283 </i>
    <i name="e_0_energy">   -733.99835770 </i>
   </energy>
  </scstep>
  <scstep>
   <time name="diag">    1.07    1.08</time>
   <time name="diis">    3.13    3.16</time>
   <time name="orth">    0.26    0.26</time>
   <time name="total">    5.05    5.10</time>
   <energy>
    <i name="e_fr_energy">   -733.88575964 </i>
    <i name="e_wo_entrp">   -733.89131278 </i>
    <i name="e_0_energy">   -733.88761069 </i>
   </energy>
  </scstep>
  <scstep>
   <time name="diag">    1.12    1.14</time>
   <time name="diis">    2.81    2.86</time>
   <time name="orth">    0.25    0.26</time>
   <time name="total">    4.76    4.85</time>
   <energy>
    <i name="e_fr_energy">   -733.87254085 </i>
    <i name="e_wo_entrp">   -733.87480708 </i>
    <i name="e_0_energy">   -733.87329626 </i>
   </energy>
  </scstep>
  <scstep>
   <time name="diag">    1.06    1.07</time>
   <time name="diis">    2.18    2.22</time>
   <time name="orth">    0.26    0.26</time>
   <time name="total">    3.65    3.71</time>
   <energy>
    <i name="alphaZ">    301.50535650 </i>
    <i name="ewald">   3667.25970811 </i>
    <i name="hartreedc"> -32724.45412381 </i>
    <i name="XCdc">  -1026.62050140 </i>
    <i name="pawpsdc">  41276.09396076 </i>
    <i name="pawaedc"> -38340.80331119 </i>
    <i name="eentropy">      0.00439718 </i>
    <i name="bandstr">   -586.14201521 </i>
    <i name="atom">  26699.28446234 </i>
    <i name="e_fr_energy">   -733.87206672 </i>
    <i name="e_wo_entrp">   -733.87646390 </i>
    <i name="e_0_energy">   -733.87353245 </i>
   </energy>
  </scstep>
  <structure>
   <crystal>
    <varray name="basis" >
     <v>       8.42830000       0.00000000       0.00000000 </v>
     <v>       0.00000000      14.59820000       0.00000000 </v>
     <v>       0.00000000       0.00000000      16.58321000 </v>
    </varray>
    <i name="volume">   2040.36514222 </i>
    <varray name="rec_basis" >
     <v>       0.11864789       0.00000000       0.00000000 </v>
     <v>       0.00000000       0.06850160       0.00000000 </v>
     <v>       0.00000000       0.00000000       0.06030196 </v>
    </varray>
   </crystal>
   <varray name="positions" >
    <v>       0.83333500       0.67754300       0.78930800 </v>
    <v>       0.00000000       0.84420700       0.78999400 </v>
    <v>       0.16666700       0.67754300       0.78930800 </v>
    <v>       0.66666800       0.84420700       0.78999400 </v>
    <v>       0.50000100       0.67754300       0.78930800 </v>
    <v>       0.33333400       0.84420700       0.78999400 </v>
    <v>       0.68026100       0.83333600       0.08660300 </v>
    <v>       0.01359400       0.83333600       0.18854400 </v>
    <v>       0.18025900       0.00000000       0.08660300 </v>
    <v>       0.51359300       0.00000000       0.18854400 </v>
    <v>       0.68026100       0.16666700       0.08660300 </v>
    <v>       0.18025900       0.33333300       0.08660300 </v>
    <v>       0.51359300       0.33333300       0.18854400 </v>
    <v>       0.01359400       0.16666700       0.18854400 </v>
    <v>       0.68026100       0.50000000       0.08660300 </v>
    <v>       0.18025900       0.66666600       0.08660300 </v>
    <v>       0.51359300       0.66666600       0.18854400 </v>
    <v>       0.01359400       0.50000000       0.18854400 </v>
    <v>       0.01359400       0.16666700       0.32676700 </v>
    <v>       0.84692800       0.33333300       0.21815900 </v>
    <v>       0.51359300       0.66666600       0.32676700 </v>
    <v>       0.34692800       0.50000000       0.21815900 </v>
    <v>       0.01359400       0.50000000       0.32676700 </v>
    <v>       0.51359300       0.00000000       0.32676700 </v>
    <v>       0.51359300       0.33333300       0.32676700 </v>
    <v>       0.34692800       0.50000000       0.35638700 </v>
    <v>       0.01359400       0.83333600       0.32676700 </v>
    <v>       0.56895200       0.92747100       0.48050300 </v>
    <v>       0.51359300       0.00000000       0.50475100 </v>
    <v>       0.05634700       0.77558200       0.47218300 </v>
    <v>       0.34692800       0.83333600       0.35638700 </v>
    <v>       0.84692800       0.33333300       0.52844300 </v>
    <v>       0.01359400       0.50000000       0.50475100 </v>
    <v>       0.34692800       0.16666700       0.35638700 </v>
    <v>       0.84692800       0.66666700       0.35638700 </v>
    <v>       0.84692800       0.66666700       0.21815900 </v>
    <v>       0.34692800       0.83333600       0.21815900 </v>
    <v>       0.34692800       0.16666700       0.21815900 </v>
    <v>       0.84692800       0.00000000       0.21815900 </v>
    <v>       0.84692800       0.33333300       0.35638700 </v>
    <v>       0.34692800       0.83333600       0.05698300 </v>
    <v>       0.34692800       0.16666700       0.05698300 </v>
    <v>       0.34692800       0.50000000       0.05698300 </v>
    <v>       0.84692800       0.33333300       0.05698300 </v>
    <v>       0.84692800       0.66666700       0.05698300 </v>
    <v>       0.84692800       0.00000000       0.05698300 </v>
    <v>       0.84692800       0.00000000       0.35638700 </v>
    <v>       0.33333400       0.06715700       0.64645100 </v>
    <v>       0.83333500       0.23382400       0.64714600 </v>
    <v>       0.33333400       0.40049000       0.64782600 </v>
    <v>       0.83333500       0.56715700       0.64851200 </v>
    <v>       0.33333400       0.73382300       0.64920200 </v>
    <v>       0.83333500       0.90048800       0.64988900 </v>
    <v>       0.00000000       0.06715700       0.64645100 </v>
    <v>       0.00000000       0.95459700       0.93078000 </v>
    <v>       0.50000100       0.23382400       0.64714600 </v>
    <v>       0.50000100       0.78792600       0.93010000 </v>
    <v>       0.00000000       0.40049000       0.64782600 </v>
    <v>       0.00000000       0.62126200       0.92941400 </v>
    <v>       0.50000100       0.56715700       0.64851200 </v>
    <v>       0.50000100       0.45459500       0.92872500 </v>
    <v>       0.00000000       0.73382300       0.64920200 </v>
    <v>       0.00000000       0.28792900       0.92803900 </v>
    <v>       0.50000100       0.90048800       0.64988900 </v>
    <v>       0.50000100       0.12126200       0.92735000 </v>
    <v>       0.66666800       0.06715700       0.64645100 </v>
    <v>       0.66666800       0.95459700       0.93078000 </v>
    <v>       0.16666700       0.23382400       0.64714600 </v>
    <v>       0.16666700       0.78792600       0.93010000 </v>
    <v>       0.66666800       0.40049000       0.64782600 </v>
    <v>       0.66666800       0.62126200       0.92941400 </v>
    <v>       0.16666700       0.56715700       0.64851200 </v>
    <v>       0.16666700       0.45459500       0.92872500 </v>
    <v>       0.66666800       0.73382300       0.64920200 </v>
    <v>       0.66666800       0.28792900       0.92803900 </v>
    <v>       0.16666700       0.90048800       0.64988900 </v>
    <v>       0.16666700       0.12126200       0.92735000 </v>
    <v>       0.33333400       0.95459700       0.93078000 </v>
    <v>       0.83333500       0.78792600       0.93010000 </v>
    <v>       0.33333400       0.62126200       0.92941400 </v>
    <v>       0.83333500       0.45459500       0.92872500 </v>
    <v>       0.33333400       0.28792900       0.92803900 </v>
    <v>       0.50000100       0.01087700       0.78655700 </v>
    <v>       0.83333500       0.01087700       0.78655700 </v>
    <v>       0.16666700       0.01087700       0.78655700 </v>
    <v>       0.83333500       0.12126200       0.92735000 </v>
    <v>       0.66666800       0.17754300       0.78724600 </v>
    <v>       0.00000000       0.17754300       0.78724600 </v>
    <v>       0.33333400       0.17754300       0.78724600 </v>
    <v>       0.83333500       0.34421000       0.78793300 </v>
    <v>       0.16666700       0.34421000       0.78793300 </v>
    <v>       0.66666800       0.51087600       0.78861900 </v>
    <v>       0.00000000       0.51087600       0.78861900 </v>
    <v>       0.50000100       0.34421000       0.78793300 </v>
    <v>       0.33333400       0.51087600       0.78861900 </v>
    <v>       0.69385400       0.94897300       0.13757100 </v>
    <v>       0.84692800       0.76871800       0.13757100 </v>
    <v>       0.50000000       0.78230900       0.13757100 </v>
    <v>       0.00000000       0.94897300       0.13757100 </v>
    <v>       0.19385400       0.11564200       0.13757100 </v>
    <v>       0.34692800       0.93538200       0.13757100 </v>
    <v>       0.69385400       0.28230900       0.13757100 </v>
    <v>       0.84692800       0.10204900       0.13757100 </v>
    <v>       0.50000000       0.11564300       0.13757100 </v>
    <v>       0.00000000       0.28230900       0.13757100 </v>
    <v>       0.19385400       0.44897600       0.13757100 </v>
    <v>       0.34692800       0.26871500       0.13757100 </v>
    <v>       0.69385400       0.61564200       0.13757100 </v>
    <v>       0.84692800       0.43538200       0.13757100 </v>
    <v>       0.50000000       0.44897600       0.13757100 </v>
    <v>       0.00000000       0.61564200       0.13757100 </v>
    <v>       0.19385400       0.78230900       0.13757100 </v>
    <v>       0.34692800       0.60204800       0.13757100 </v>
    <v>       0.86052100       0.21769100       0.26913200 </v>
    <v>       0.16666700       0.21769100       0.26913200 </v>
    <v>       0.01359400       0.06461800       0.26913200 </v>
    <v>       0.51359300       0.56461800       0.26913200 </v>
    <v>       0.36052100       0.71769100       0.26913200 </v>
    <v>       0.66666700       0.71769100       0.26913200 </v>
    <v>       0.01359400       0.39795100       0.26913200 </v>
    <v>       0.16666700       0.55102500       0.26913200 </v>
    <v>       0.86052100       0.55102500       0.26913200 </v>
    <v>       0.51359300       0.89795300       0.26913200 </v>
    <v>       0.36052100       0.05102500       0.26913200 </v>
    <v>       0.66666700       0.05102500       0.26913200 </v>
    <v>       0.51359300       0.23128500       0.26913200 </v>
    <v>       0.36052100       0.38435800       0.26913200 </v>
    <v>       0.66666700       0.38435800       0.26913200 </v>
    <v>       0.50000000       0.78230900       0.46397200 </v>
    <v>       0.24245800       0.44887700       0.47728100 </v>
    <v>       0.18550600       0.42958900       0.39559700 </v>
    <v>       0.16666700       0.88435600       0.26913200 </v>
    <v>       0.86052100       0.88435600       0.26913200 </v>
    <v>       0.01359400       0.73128200       0.26913200 </v>
    <v>       0.50367200       0.10281900       0.43690900 </v>
    <v>       0.18548000       0.08179800       0.38605500 </v>
    <v>       0.06435000       0.92266200       0.41062800 </v>
    <v>       0.20802900       0.94701400       0.40909200 </v>
    <v>       0.87867100       0.78180900       0.40160900 </v>
    <v>       0.16571800       0.77223900       0.38400600 </v>
    <v>       0.49949500       0.43832900       0.43607400 </v>
    <v>       0.34400100       0.28704100       0.38917400 </v>
    <v>       0.66346100       0.26827800       0.39211000 </v>
    <v>       0.69297700       0.28312800       0.47927400 </v>
    <v>       0.05341600       0.63734400       0.40240300 </v>
   </varray>
  </structure>
  <varray name="forces" >
   <v>      -0.08010827       0.03895486       0.27092359 </v>
   <v>       0.06083893      -0.11967984      -0.10597456 </v>
   <v>       0.11884660       0.09246347       0.24300583 </v>
   <v>       0.16399637       0.05088891       0.25416007 </v>
   <v>      -0.04295557      -0.07802196      -0.06929992 </v>
   <v>      -0.14428973       0.04008248       0.21563314 </v>
   <v>       0.10310526      -0.06323634       0.25446701 </v>
   <v>       0.23685537      -0.18634733      -1.10853950 </v>
   <v>      -0.05791556       0.04873385       0.35169047 </v>
   <v>      -0.27300618       0.44355157      -1.89514599 </v>
   <v>      -0.18469026       0.06068799       0.33388207 </v>
   <v>       0.12015365      -0.14812580       0.47101227 </v>
   <v>      -0.30654125      -0.30941117      -1.17532098 </v>
   <v>       0.43023002      -0.06423803      -1.41375068 </v>
   <v>      -0.05915483      -0.07666966       0.19191339 </v>
   <v>      -0.02360376       0.05421641       0.28159113 </v>
   <v>      -0.05627223       0.02310723      -2.03185140 </v>
   <v>       0.18465906      -0.01307931      -1.99122917 </v>
   <v>       2.72138453      -1.58747711       5.07015850 </v>
   <v>      -0.19717960      -0.01247853      -3.34579695 </v>
   <v>       0.39335001       0.13108794       5.01708668 </v>
   <v>      -0.10262482      -0.60305063      -3.28883103 </v>
   <v>       1.26217588       0.62463547       5.37846976 </v>
   <v>      -0.22974524       1.34163739       5.85438739 </v>
   <v>      -2.56863088      -0.57876229       8.24419163 </v>
   <v>       2.17040867      -2.41576878       4.92259683 </v>
   <v>       0.07736646      -0.76230135       4.28106891 </v>
   <v>      22.77948600     -55.65605559     -20.02787112 </v>
   <v>     -23.39081393      54.69893291      17.56373379 </v>
   <v>      -1.42240783      -1.06278746      -0.19032470 </v>
   <v>      -1.13838314      -0.38739399       5.39695250 </v>
   <v>       1.04425266       1.17459937      -1.43222460 </v>
   <v>       1.56656485       0.07587523      -0.80816114 </v>
   <v>      -0.59512099       0.63302030       6.42090790 </v>
   <v>       2.30880195       1.79899687       3.87537268 </v>
   <v>       0.70457169       0.56770073      -3.23949113 </v>
   <v>      -0.83138830       0.26781640      -3.37878969 </v>
   <v>       0.02226499       0.39926858      -2.67928642 </v>
   <v>       0.36773466      -0.05039914      -3.03526225 </v>
   <v>      -0.72453535      -0.57481162       3.04203245 </v>
   <v>      -0.28901299       0.15091239       0.78388830 </v>
   <v>      -0.03402605       0.10580994       0.79048553 </v>
   <v>      -0.15618713       0.20463896       0.65847487 </v>
   <v>      -0.22115124       0.01958661       0.74665225 </v>
   <v>      -0.06353151       0.21588670       0.76330426 </v>
   <v>       0.00476466       0.26425501       0.81548091 </v>
   <v>       0.92196995      -0.30921876       3.41717361 </v>
   <v>      -0.07008738       0.01950393      -0.22165183 </v>
   <v>      -0.05124133      -0.86632656       0.97743675 </v>
   <v>       0.06326172      -0.05387712      -0.47878079 </v>
   <v>      -0.10249177      -0.02733091      -0.26578487 </v>
   <v>       0.18640018       0.01812418      -0.30538194 </v>
   <v>       0.05055546       0.04146069      -0.33221004 </v>
   <v>      -0.04716450      -0.02369299      -0.28424114 </v>
   <v>       0.53335372      -0.09966432      -0.42169565 </v>
   <v>      -0.11785622       0.16199408      -0.41879069 </v>
   <v>       0.31200727      -0.21607848      -0.22460657 </v>
   <v>       0.45316402       0.19744607       0.49431887 </v>
   <v>       0.43726182      -0.12253678      -0.26510855 </v>
   <v>      -0.00313764      -0.02719793      -0.26777292 </v>
   <v>       0.46878580      -0.14822122      -0.25279164 </v>
   <v>       0.13584329       0.34710149      -0.84180647 </v>
   <v>       0.38267778      -0.22418891      -0.31852988 </v>
   <v>      -0.10297316       0.01683253      -0.75121353 </v>
   <v>       0.34361830      -0.17930750      -0.10305897 </v>
   <v>       0.19139235      -0.00458446      -0.21300375 </v>
   <v>      -0.15659794      -0.00258662      -0.23001426 </v>
   <v>       0.11611547       0.02079236      -0.23065646 </v>
   <v>      -0.23539280      -0.20428367      -0.05940686 </v>
   <v>      -0.48202424       0.21371542       0.03704691 </v>
   <v>      -0.11761811      -0.21787686      -0.05831545 </v>
   <v>       0.19690702      -0.04367600      -0.11555401 </v>
   <v>      -0.17734717      -0.08657805      -0.05799330 </v>
   <v>      -0.15723525       0.06126709      -0.26560574 </v>
   <v>      -0.18592663      -0.22133446       0.04588013 </v>
   <v>      -0.06760649      -0.02502666      -0.33033949 </v>
   <v>      -0.09898070      -0.25459728       0.00792165 </v>
   <v>      -0.23871036       0.45267630       0.00477884 </v>
   <v>      -0.03266464       0.20195520       0.10657556 </v>
   <v>      -0.23118277       0.21836097       0.26603972 </v>
   <v>      -0.17843407       0.23964250       0.11436702 </v>
   <v>      -0.13601320       0.09092562       0.26997334 </v>
   <v>      -0.06894624      -0.06704953      -0.06649475 </v>
   <v>      -0.11416624       0.07280324       0.39851316 </v>
   <v>       0.21694214       0.03713237       0.48873326 </v>
   <v>      -0.15945262       0.17752457       0.14548105 </v>
   <v>       0.15480263       0.00703125       0.13979603 </v>
   <v>      -0.06061985      -0.02417778      -0.01560057 </v>
   <v>      -0.06752545      -0.09078540       0.11658501 </v>
   <v>      -0.04303233      -0.07933171      -0.00334182 </v>
   <v>       0.11772871      -0.01285841       0.20603604 </v>
   <v>       0.11620237       0.06168661       0.24311679 </v>
   <v>      -0.01601610      -0.01531339      -0.15939141 </v>
   <v>       0.03476581      -0.08906316      -0.09238915 </v>
   <v>      -0.08900795       0.04426310       0.18388675 </v>
   <v>      -0.16149344      -0.09370295      -0.58078430 </v>
   <v>      -0.22183640       0.02088218      -0.77553282 </v>
   <v>       0.18110867      -0.14028259      -0.41023980 </v>
   <v>      -0.03290735      -0.07292294      -0.64564094 </v>
   <v>      -0.05927558      -0.08994295      -0.74288370 </v>
   <v>       0.23198377      -0.04993526      -0.53193730 </v>
   <v>       0.11598434       0.07211406      -0.60982506 </v>
   <v>      -0.09653578       0.05423408      -0.72331506 </v>
   <v>       0.13138323      -0.19279529      -0.64388687 </v>
   <v>      -0.00303223       0.02078301      -0.61194353 </v>
   <v>      -0.13841931       0.00529171      -0.70604445 </v>
   <v>      -0.06640350       0.12075642      -0.84365211 </v>
   <v>      -0.13205983      -0.02383559      -0.43789069 </v>
   <v>       0.07684278       0.10843166      -0.49289007 </v>
   <v>       0.14798860       0.09284634      -0.74436289 </v>
   <v>      -0.00715628      -0.25005148      -0.50088134 </v>
   <v>       0.10842870      -0.17344243      -0.78297236 </v>
   <v>       0.14548352       0.04911395      -0.39349648 </v>
   <v>       0.18789599       2.28833976      -0.38557501 </v>
   <v>       1.15528436      -1.23739007      -1.50540437 </v>
   <v>      -3.26711573      -1.27977367      -1.62855513 </v>
   <v>      -2.09714003      -0.93611018      -0.39220070 </v>
   <v>       0.85369004       2.27623311      -0.14099462 </v>
   <v>       1.73381774      -1.27672976      -0.31248137 </v>
   <v>      -2.31698745      -0.80956406      -0.61399869 </v>
   <v>       2.33108584      -1.43086386      -0.60754369 </v>
   <v>      -0.03771117       2.13146930       0.09939059 </v>
   <v>      -2.14587181      -1.41806743       0.11201531 </v>
   <v>       1.33021261       1.86899701      -0.93568149 </v>
   <v>       1.60917694      -1.43397536      -0.41488953 </v>
   <v>      -1.71240656      -1.64430108      -2.20668590 </v>
   <v>       0.50337710       3.80614933      -1.89251152 </v>
   <v>       2.47710171      -1.00945159      -0.59458673 </v>
   <v>      -0.53086887       2.00949023      -2.29507269 </v>
   <v>      -3.07621325       1.44987407       1.77120830 </v>
   <v>      -1.24171577       0.99796844      -1.17833609 </v>
   <v>       2.39319125      -1.21218373      -2.36971598 </v>
   <v>      -0.08596792       2.97522006      -0.78453791 </v>
   <v>      -3.14024851      -1.58863844      -2.84396265 </v>
   <v>      -0.77072346      -1.40181050      -1.42275055 </v>
   <v>      -1.00077986       5.24139920       0.23996525 </v>
   <v>      -6.69217255      -1.31889311       0.58255763 </v>
   <v>       6.51783449       0.41756258       0.52552317 </v>
   <v>      -0.84198771      -0.33516968       1.34218399 </v>
   <v>       3.99232515       0.99304783       1.15314826 </v>
   <v>      -0.20180873       1.59145064      -4.03824094 </v>
   <v>       1.07125304      -2.87372808      -0.30165933 </v>
   <v>       2.09877046       0.66953988       0.45126413 </v>
   <v>      -1.83703599      -0.88814221      -0.51390117 </v>
   <v>      -2.95118353      -3.82221684       0.99170835 </v>
  </varray>
  <varray name="stress" >
   <v>       0.57442999     -15.28877941     -14.55947543 </v>
   <v>     -15.28877942       0.72979623      16.80003066 </v>
   <v>     -14.55947543      16.80003066      47.63576063 </v>
  </varray>
  <energy>
   <i name="e_fr_energy">   -733.87206672 </i>
   <i name="e_wo_entrp">   -733.87353245 </i>
   <i name="e_0_energy">      0.00439718 </i>
  </energy>
  <time name="totalsc">  108.26  110.33</time>
 </calculation>
 <calculation>
  <scstep>
   <time name="dav">    5.80    6.14</time>
   <time name="total">    6.38    6.75</time>
   <energy>
    <i name="alphaZ">    301.50535650 </i>
    <i name="ewald">   3832.87645444 </i>
    <i name="hartreedc"> -32883.94987101 </i>
    <i name="XCdc">  -1025.68439254 </i>
    <i name="pawpsdc">  41209.72793666 </i>
    <i name="pawaedc"> -38274.40572894 </i>
    <i name="eentropy">      0.00166968 </i>
    <i name="bandstr">   -610.97532070 </i>
    <i name="atom">  26699.28446234 </i>
    <i name="e_fr_energy">   -751.61943357 </i>
    <i name="e_wo_entrp">   -751.62110325 </i>
    <i name="e_0_energy">   -751.61999013 </i>
   </energy>
  </scstep>
  <scstep>
   <time name="diag">    1.07    1.08</time>
   <time name="diis">    3.23    3.26</time>
   <time name="orth">    0.26    0.26</time>
   <time name="total">    5.15    5.21</time>
   <energy>
    <i name="e_fr_energy">   -755.20423522 </i>
    <i name="e_wo_entrp">   -755.21626657 </i>
    <i name="e_0_energy">   -755.20824567 </i>
   </energy>
  </scstep>
  <scstep>
   <time name="diag">    1.06    1.07</time>
   <time name="diis">    3.44    3.47</time>
   <time name="orth">    0.25    0.26</time>
   <time name="total">    5.35    5.40</time>
   <energy>
    <i name="e_fr_energy">   -754.57118978 </i>
    <i name="e_wo_entrp">   -754.55163738 </i>
    <i name="e_0_energy">   -754.56467231 </i>
   </energy>
  </scstep>
  <scstep>
   <time name="diag">    1.06    1.07</time>
   <time name="diis">    3.34    3.37</time>
   <time name="orth">    0.25    0.26</time>
   <time name="total">    5.23    5.30</time>
   <energy>
    <i name="e_fr_energy">   -754.34051791 </i>
    <i name="e_wo_entrp">   -754.33349580 </i>
    <i name="e_0_energy">   -754.33817721 </i>
   </energy>
  </scstep>
  <scstep>
   <time name="diag">    1.02    1.07</time>
   <time name="diis">    3.19    3.34</time>
   <time name="orth">    0.24    0.26</time>
   <time name="total">    5.02    5.27</time>
   <energy>
    <i name="e_fr_energy">   -754.21409913 </i>
    <i name="e_wo_entrp">   -754.20461062 </i>
    <i name="e_0_energy">   -754.21093629 </i>
   </energy>
  </scstep>
  <scstep>
   <time name="diag">    1.02    1.07</time>
   <time name="diis">    3.12    3.29</time>
   <time name="orth">    0.25    0.26</time>
   <time name="total">    4.95    5.21</time>
   <energy>
    <i name="e_fr_energy">   -754.22120750 </i>
    <i name="e_wo_entrp">   -754.20591040 </i>
    <i name="e_0_energy">   -754.21610846 </i>
   </energy>
  </scstep>
  <scstep>
   <time name="diag">    1.07    1.07</time>
   <time name="diis">    3.18    3.18</time>
   <time name="orth">    0.25    0.25</time>
   <time name="total">    5.06    5.08</time>
   <energy>
    <i name="e_fr_energy">   -754.25296852 </i>
    <i name="e_wo_entrp">   -754.23989451 </i>
    <i name="e_0_energy">   -754.24861052 </i>
   </energy>
  </scstep>
  <scstep>
   <time name="diag">    1.06    1.07</time>
   <time name="diis">    3.08    3.11</time>
   <time name="orth">    0.25    0.26</time>
   <time name="total">    5.00    5.04</time>
   <energy>
    <i name="e_fr_energy">   -754.24874477 </i>
    <i name="e_wo_entrp">   -754.23284085 </i>
    <i name="e_0_energy">   -754.24344346 </i>
   </energy>
  </scstep>
  <scstep>
   <time name="diag">    1.09    1.14</time>
   <time name="diis">    2.74    2.87</time>
   <time name="orth">    0.25    0.26</time>
   <time name="total">    4.62    4.85</time>
   <energy>
    <i name="e_fr_energy">   -754.24852009 </i>
    <i name="e_wo_entrp">   -754.23220693 </i>
    <i name="e_0_energy">   -754.24308237 </i>
   </energy>
  </scstep>
  <scstep>
   <time name="diag">    1.03    1.07</time>
   <time name="diis">    2.29    2.40</time>
   <time name="orth">    0.25    0.26</time>
   <time name="total">    4.11    4.30</time>
   <energy>
    <i name="e_fr_energy">   -754.25025685 </i>
    <i name="e_wo_entrp">   -754.23442671 </i>
    <i name="e_0_energy">   -754.24498014 </i>
   </energy>
  </scstep>
  <scstep>
   <time name="diag">    1.02    1.07</time>
   <time name="diis">    2.08    2.18</time>
   <time name="orth">    0.25    0.26</time>
   <time name="total">    3.89    4.08</time>
   <energy>
    <i name="e_fr_energy">   -754.25159315 </i>
    <i name="e_wo_entrp">   -754.23531702 </i>
    <i name="e_0_energy">   -754.24616777 </i>
   </energy>
  </scstep>
  <scstep>
   <time name="diag">    1.03    1.09</time>
   <time name="diis">    1.95    2.04</time>
   <time name="orth">    0.25    0.26</time>
   <time name="total">    3.39    3.56</time>
   <energy>
    <i name="alphaZ">    301.50535650 </i>
    <i name="ewald">   3832.87645444 </i>
    <i name="hartreedc"> -32881.19095777 </i>
    <i name="XCdc">  -1025.26431093 </i>
    <i name="pawpsdc">  41041.30701079 </i>
    <i name="pawaedc"> -38105.91767807 </i>
    <i name="eentropy">     -0.01601996 </i>
    <i name="bandstr">   -616.83667877 </i>
    <i name="atom">  26699.28446234 </i>
    <i name="e_fr_energy">   -754.25236142 </i>
    <i name="e_wo_entrp">   -754.23634146 </i>
    <i name="e_0_energy">   -754.24702143 </i>
   </energy>
  </scstep>
  <structure>
   <crystal>
    <varray name="basis" >
     <v>       8.42830000       0.00000000       0.00000000 </v>
     <v>       0.00000000      14.59820000       0.00000000 </v>
     <v>       0.00000000       0.00000000      16.58321000 </v>
    </varray>
    <i name="volume">   2040.36514222 </i>
    <varray name="rec_basis" >
     <v>       0.11864789       0.00000000       0.00000000 </v>
     <v>       0.00000000       0.06850160       0.00000000 </v>
     <v>       0.00000000       0.00000000       0.06030196 </v>
    </varray>
   </crystal>
   <varray name="positions" >
    <v>       0.83333500       0.67754300       0.78930800 </v>
    <v>       0.00000000       0.84420700       0.78999400 </v>
    <v>       0.16666700       0.67754300       0.78930800 </v>
    <v>       0.66666800       0.84420700       0.78999400 </v>
    <v>       0.50000100       0.67754300       0.78930800 </v>
    <v>       0.33333400       0.84420700       0.78999400 </v>
    <v>       0.68026100       0.83333600       0.08660300 </v>
    <v>       0.01359400       0.83333600       0.18854400 </v>
    <v>       0.18025900       0.00000000       0.08660300 </v>
    <v>       0.51359300       0.00000000       0.18854400 </v>
    <v>       0.68026100       0.16666700       0.08660300 </v>
    <v>       0.18025900       0.33333300       0.08660300 </v>
    <v>       0.51359300       0.33333300       0.18854400 </v>
    <v>       0.01359400       0.16666700       0.18854400 </v>
    <v>       0.68026100       0.50000000       0.08660300 </v>
    <v>       0.18025900       0.66666600       0.08660300 </v>
    <v>       0.51359300       0.66666600       0.18854400 </v>
    <v>       0.01359400       0.50000000       0.18854400 </v>
    <v>       0.01359400       0.16666700       0.32676700 </v>
    <v>       0.84692800       0.33333300       0.21815900 </v>
    <v>       0.51359300       0.66666600       0.32676700 </v>
    <v>       0.34692800       0.50000000       0.21815900 </v>
    <v>       0.01359400       0.50000000       0.32676700 </v>
    <v>       0.51359300       0.00000000       0.32676700 </v>
    <v>       0.51359300       0.33333300       0.32676700 </v>
    <v>       0.34692800       0.50000000       0.35638700 </v>
    <v>       0.01359400       0.83333600       0.32676700 </v>
    <v>       0.69933925       0.74354450       0.42223939 </v>
    <v>       0.37970658       0.18076350       0.55584612 </v>
    <v>       0.04820530       0.77206981       0.47162932 </v>
    <v>       0.34692800       0.83333600       0.35638700 </v>
    <v>       0.85290519       0.33721470       0.52427648 </v>
    <v>       0.02256084       0.50025074       0.50239996 </v>
    <v>       0.34692800       0.16666700       0.35638700 </v>
    <v>       0.84692800       0.66666700       0.35638700 </v>
    <v>       0.84692800       0.66666700       0.21815900 </v>
    <v>       0.34692800       0.83333600       0.21815900 </v>
    <v>       0.34692800       0.16666700       0.21815900 </v>
    <v>       0.84692800       0.00000000       0.21815900 </v>
    <v>       0.84692800       0.33333300       0.35638700 </v>
    <v>       0.34692800       0.83333600       0.05698300 </v>
    <v>       0.34692800       0.16666700       0.05698300 </v>
    <v>       0.34692800       0.50000000       0.05698300 </v>
    <v>       0.84692800       0.33333300       0.05698300 </v>
    <v>       0.84692800       0.66666700       0.05698300 </v>
    <v>       0.84692800       0.00000000       0.05698300 </v>
    <v>       0.84692800       0.00000000       0.35638700 </v>
    <v>       0.33333400       0.06715700       0.64645100 </v>
    <v>       0.83333500       0.23382400       0.64714600 </v>
    <v>       0.33333400       0.40049000       0.64782600 </v>
    <v>       0.83333500       0.56715700       0.64851200 </v>
    <v>       0.33333400       0.73382300       0.64920200 </v>
    <v>       0.83333500       0.90048800       0.64988900 </v>
    <v>       0.00000000       0.06715700       0.64645100 </v>
    <v>       0.00000000       0.95459700       0.93078000 </v>
    <v>       0.50000100       0.23382400       0.64714600 </v>
    <v>       0.50000100       0.78792600       0.93010000 </v>
    <v>       0.00000000       0.40049000       0.64782600 </v>
    <v>       0.00000000       0.62126200       0.92941400 </v>
    <v>       0.50000100       0.56715700       0.64851200 </v>
    <v>       0.50000100       0.45459500       0.92872500 </v>
    <v>       0.00000000       0.73382300       0.64920200 </v>
    <v>       0.00000000       0.28792900       0.92803900 </v>
    <v>       0.50000100       0.90048800       0.64988900 </v>
    <v>       0.50000100       0.12126200       0.92735000 </v>
    <v>       0.66666800       0.06715700       0.64645100 </v>
    <v>       0.66666800       0.95459700       0.93078000 </v>
    <v>       0.16666700       0.23382400       0.64714600 </v>
    <v>       0.16666700       0.78792600       0.93010000 </v>
    <v>       0.66666800       0.40049000       0.64782600 </v>
    <v>       0.66666800       0.62126200       0.92941400 </v>
    <v>       0.16666700       0.56715700       0.64851200 </v>
    <v>       0.16666700       0.45459500       0.92872500 </v>
    <v>       0.66666800       0.73382300       0.64920200 </v>
    <v>       0.66666800       0.28792900       0.92803900 </v>
    <v>       0.16666700       0.90048800       0.64988900 </v>
    <v>       0.16666700       0.12126200       0.92735000 </v>
    <v>       0.33333400       0.95459700       0.93078000 </v>
    <v>       0.83333500       0.78792600       0.93010000 </v>
    <v>       0.33333400       0.62126200       0.92941400 </v>
    <v>       0.83333500       0.45459500       0.92872500 </v>
    <v>       0.33333400       0.28792900       0.92803900 </v>
    <v>       0.50000100       0.01087700       0.78655700 </v>
    <v>       0.83333500       0.01087700       0.78655700 </v>
    <v>       0.16666700       0.01087700       0.78655700 </v>
    <v>       0.83333500       0.12126200       0.92735000 </v>
    <v>       0.66666800       0.17754300       0.78724600 </v>
    <v>       0.00000000       0.17754300       0.78724600 </v>
    <v>       0.33333400       0.17754300       0.78724600 </v>
    <v>       0.83333500       0.34421000       0.78793300 </v>
    <v>       0.16666700       0.34421000       0.78793300 </v>
    <v>       0.66666800       0.51087600       0.78861900 </v>
    <v>       0.00000000       0.51087600       0.78861900 </v>
    <v>       0.50000100       0.34421000       0.78793300 </v>
    <v>       0.33333400       0.51087600       0.78861900 </v>
    <v>       0.69385400       0.94897300       0.13757100 </v>
    <v>       0.84692800       0.76871800       0.13757100 </v>
    <v>       0.50000000       0.78230900       0.13757100 </v>
    <v>       0.00000000       0.94897300       0.13757100 </v>
    <v>       0.19385400       0.11564200       0.13757100 </v>
    <v>       0.34692800       0.93538200       0.13757100 </v>
    <v>       0.69385400       0.28230900       0.13757100 </v>
    <v>       0.84692800       0.10204900       0.13757100 </v>
    <v>       0.50000000       0.11564300       0.13757100 </v>
    <v>       0.00000000       0.28230900       0.13757100 </v>
    <v>       0.19385400       0.44897600       0.13757100 </v>
    <v>       0.34692800       0.26871500       0.13757100 </v>
    <v>       0.69385400       0.61564200       0.13757100 </v>
    <v>       0.84692800       0.43538200       0.13757100 </v>
    <v>       0.50000000       0.44897600       0.13757100 </v>
    <v>       0.00000000       0.61564200       0.13757100 </v>
    <v>       0.19385400       0.78230900       0.13757100 </v>
    <v>       0.34692800       0.60204800       0.13757100 </v>
    <v>       0.86052100       0.21769100       0.26913200 </v>
    <v>       0.16666700       0.21769100       0.26913200 </v>
    <v>       0.01359400       0.06461800       0.26913200 </v>
    <v>       0.51359300       0.56461800       0.26913200 </v>
    <v>       0.36052100       0.71769100       0.26913200 </v>
    <v>       0.66666700       0.71769100       0.26913200 </v>
    <v>       0.01359400       0.39795100       0.26913200 </v>
    <v>       0.16666700       0.55102500       0.26913200 </v>
    <v>       0.86052100       0.55102500       0.26913200 </v>
    <v>       0.51359300       0.89795300       0.26913200 </v>
    <v>       0.36052100       0.05102500       0.26913200 </v>
    <v>       0.66666700       0.05102500       0.26913200 </v>
    <v>       0.51359300       0.23128500       0.26913200 </v>
    <v>       0.36052100       0.38435800       0.26913200 </v>
    <v>       0.66666700       0.38435800       0.26913200 </v>
    <v>       0.49696137       0.78894976       0.45729534 </v>
    <v>       0.22485010       0.45366840       0.48243367 </v>
    <v>       0.18550600       0.42958900       0.39559700 </v>
    <v>       0.16666700       0.88435600       0.26913200 </v>
    <v>       0.86052100       0.88435600       0.26913200 </v>
    <v>       0.01359400       0.73128200       0.26913200 </v>
    <v>       0.50367200       0.10281900       0.43690900 </v>
    <v>       0.18548000       0.08179800       0.38605500 </v>
    <v>       0.06435000       0.92266200       0.41062800 </v>
    <v>       0.20802900       0.94701400       0.40909200 </v>
    <v>       0.87867100       0.78180900       0.40160900 </v>
    <v>       0.16571800       0.77223900       0.38400600 </v>
    <v>       0.49949500       0.43832900       0.43607400 </v>
    <v>       0.34400100       0.28704100       0.38917400 </v>
    <v>       0.66346100       0.26827800       0.39211000 </v>
    <v>       0.68246201       0.28019296       0.47777900 </v>
    <v>       0.05341600       0.63734400       0.40240300 </v>
   </varray>
  </structure>
  <varray name="forces" >
   <v>      -0.10275770       0.01149959       0.15003862 </v>
   <v>       0.01295383      -0.11365518      -0.11275551 </v>
   <v>       0.06363688       0.01757526       0.19623683 </v>
   <v>       0.13379808      -0.02170327       0.22690763 </v>
   <v>       0.05177238      -0.08391910      -0.08603313 </v>
   <v>      -0.06344450       0.04031914       0.24651693 </v>
   <v>       0.04399403       0.00079481       0.02985626 </v>
   <v>       0.26595755      -0.00915570      -1.39960600 </v>
   <v>      -0.02305008       0.10184729       0.29416083 </v>
   <v>      -0.17918660       0.75771682      -1.92383349 </v>
   <v>      -0.04686353       0.00628049       0.40547123 </v>
   <v>       0.18044433      -0.05025414       0.37126695 </v>
   <v>      -0.28049611      -0.34877595      -1.16747438 </v>
   <v>       0.41202626      -0.07611369      -1.40397023 </v>
   <v>      -0.05691126      -0.15430304       0.05531499 </v>
[...]
       <r>     1.9872    69.5914   378.4348 </r>
       <r>     2.0945    68.3613   385.7705 </r>
       <r>     2.2018    59.9466   392.2033 </r>
       <r>     2.3091    62.2849   398.8870 </r>
       <r>     2.4164    79.1627   407.3818 </r>
       <r>     2.5237    75.0116   415.4312 </r>
       <r>     2.6310    57.1873   421.5678 </r>
       <r>     2.7383    64.0163   428.4373 </r>
       <r>     2.8457    64.4692   435.3554 </r>
       <r>     2.9530    54.8554   441.2418 </r>
       <r>     3.0603    59.4695   447.6234 </r>
       <r>     3.1676    73.4228   455.5023 </r>
       <r>     3.2749    64.7958   462.4554 </r>
       <r>     3.3822    49.4512   467.7619 </r>
       <r>     3.4895    35.2503   471.5446 </r>
       <r>     3.5968    28.0432   474.5539 </r>
       <r>     3.7041    37.0085   478.5252 </r>
       <r>     3.8114    46.9788   483.5664 </r>
       <r>     3.9187    50.8024   489.0179 </r>
       <r>     4.0260    37.4508   493.0367 </r>
       <r>     4.1334    40.4989   497.3826 </r>
       <r>     4.2407    39.2615   501.5957 </r>
       <r>     4.3480    39.8841   505.8756 </r>
       <r>     4.4553    38.9224   510.0523 </r>
       <r>     4.5626    37.9042   514.1197 </r>
       <r>     4.6699    36.5033   518.0368 </r>
       <r>     4.7772    38.7386   522.1938 </r>
       <r>     4.8845    26.4626   525.0334 </r>
       <r>     4.9918    25.5227   527.7722 </r>
       <r>     5.0991    31.4256   531.1444 </r>
       <r>     5.2064    26.8104   534.0214 </r>
       <r>     5.3137    29.0444   537.1381 </r>
       <r>     5.4211    24.8118   539.8006 </r>
       <r>     5.5284    19.9670   541.9433 </r>
       <r>     5.6357    32.5470   545.4358 </r>
       <r>     5.7430    42.9263   550.0422 </r>
       <r>     5.8503    25.5280   552.7815 </r>
       <r>     5.9576    31.7525   556.1889 </r>
       <r>     6.0649    33.0191   559.7321 </r>
       <r>     6.1722    47.4773   564.8268 </r>
       <r>     6.2795    42.3971   569.3763 </r>
       <r>     6.3868    35.5010   573.1859 </r>
       <r>     6.4941    37.5807   577.2186 </r>
       <r>     6.6014    47.2448   582.2884 </r>
       <r>     6.7088    31.4412   585.6623 </r>
       <r>     6.8161    24.0641   588.2446 </r>
       <r>     6.9234    39.6399   592.4982 </r>
       <r>     7.0307    47.7649   597.6238 </r>
       <r>     7.1380    35.8699   601.4730 </r>
       <r>     7.2453    27.4934   604.4232 </r>
       <r>     7.3526    22.2807   606.8141 </r>
       <r>     7.4599    27.2285   609.7360 </r>
       <r>     7.5672    34.7424   613.4641 </r>
       <r>     7.6745    31.1050   616.8019 </r>
       <r>     7.7818    27.0061   619.6999 </r>
       <r>     7.8891    41.9497   624.2015 </r>
       <r>     7.9965    36.2087   628.0870 </r>
       <r>     8.1038    41.8471   632.5775 </r>
       <r>     8.2111    41.0271   636.9801 </r>
       <r>     8.3184    37.5835   641.0131 </r>
       <r>     8.4257    46.2526   645.9764 </r>
       <r>     8.5330    51.1840   651.4688 </r>
       <r>     8.6403    41.3871   655.9100 </r>
       <r>     8.7476    36.8883   659.8684 </r>
       <r>     8.8549    32.6068   663.3674 </r>
       <r>     8.9622    33.1853   666.9285 </r>
       <r>     9.0695    37.6824   670.9721 </r>
       <r>     9.1768    34.5732   674.6821 </r>
       <r>     9.2842    32.7930   678.2011 </r>
       <r>     9.3915    30.4712   681.4709 </r>
       <r>     9.4988    34.3381   685.1556 </r>
       <r>     9.6061    40.1647   689.4656 </r>
       <r>     9.7134    53.6405   695.2217 </r>
       <r>     9.8207    43.8476   699.9269 </r>
       <r>     9.9280    54.4221   705.7669 </r>
       <r>    10.0353    72.6153   713.5591 </r>
       <r>    10.1426    53.5521   719.3057 </r>
       <r>    10.2499    50.7700   724.7537 </r>
       <r>    10.3572    55.9801   730.7609 </r>
       <r>    10.4645    31.3186   734.1216 </r>
       <r>    10.5719    17.6035   736.0106 </r>
       <r>    10.6792     0.1992   736.0320 </r>
       <r>    10.7865    -0.2945   736.0004 </r>
       <r>    10.8938    -0.0036   736.0000 </r>
       <r>    11.0011    -0.0000   736.0000 </r>
       <r>    11.1084    -0.0000   736.0000 </r>
       <r>    11.2157    -0.0000   736.0000 </r>
       <r>    11.3230     0.0000   736.0000 </r>
       <r>    11.4303     0.0000   736.0000 </r>
       <r>    11.5376     0.0000   736.0000 </r>
       <r>    11.6449     0.0000   736.0000 </r>
       <r>    11.7522     0.0000   736.0000 </r>
       <r>    11.8596     0.0000   736.0000 </r>
       <r>    11.9669     0.0000   736.0000 </r>
      </set>
     </set>
    </array>
   </total>
  </dos>
 </calculation>
 <structure name="finalpos" >
  <crystal>
   <varray name="basis" >
    <v>       8.42830000       0.00000000       0.00000000 </v>
    <v>       0.00000000      14.59820000       0.00000000 </v>
    <v>       0.00000000       0.00000000      16.58321000 </v>
   </varray>
   <i name="volume">   2040.36514222 </i>
   <varray name="rec_basis" >
    <v>       0.11864789       0.00000000       0.00000000 </v>
    <v>       0.00000000       0.06850160       0.00000000 </v>
    <v>       0.00000000       0.00000000       0.06030196 </v>
   </varray>
  </crystal>
  <varray name="positions" >
   <v>       0.83333500       0.67754300       0.78930800 </v>
   <v>       0.00000000       0.84420700       0.78999400 </v>
   <v>       0.16666700       0.67754300       0.78930800 </v>
   <v>       0.66666800       0.84420700       0.78999400 </v>
   <v>       0.50000100       0.67754300       0.78930800 </v>
   <v>       0.33333400       0.84420700       0.78999400 </v>
   <v>       0.68026100       0.83333600       0.08660300 </v>
   <v>       0.01359400       0.83333600       0.18854400 </v>
   <v>       0.18025900       0.00000000       0.08660300 </v>
   <v>       0.51359300       0.00000000       0.18854400 </v>
   <v>       0.68026100       0.16666700       0.08660300 </v>
   <v>       0.18025900       0.33333300       0.08660300 </v>
   <v>       0.51359300       0.33333300       0.18854400 </v>
   <v>       0.01359400       0.16666700       0.18854400 </v>
   <v>       0.68026100       0.50000000       0.08660300 </v>
   <v>       0.18025900       0.66666600       0.08660300 </v>
   <v>       0.51359300       0.66666600       0.18854400 </v>
   <v>       0.01359400       0.50000000       0.18854400 </v>
   <v>       0.01359400       0.16666700       0.32676700 </v>
   <v>       0.84692800       0.33333300       0.21815900 </v>
   <v>       0.51359300       0.66666600       0.32676700 </v>
   <v>       0.34692800       0.50000000       0.21815900 </v>
   <v>       0.01359400       0.50000000       0.32676700 </v>
   <v>       0.51359300       0.00000000       0.32676700 </v>
   <v>       0.51359300       0.33333300       0.32676700 </v>
   <v>       0.34692800       0.50000000       0.35638700 </v>
   <v>       0.01359400       0.83333600       0.32676700 </v>
   <v>       0.67571459       0.75769182       0.47133351 </v>
   <v>       0.52792899       0.22413285       0.46222304 </v>
   <v>       0.06018766       0.73977054       0.46994044 </v>
   <v>       0.34692800       0.83333600       0.35638700 </v>
   <v>       0.68517256       0.49440565       0.45133123 </v>
   <v>       0.15973905       0.52778952       0.46771746 </v>
   <v>       0.34692800       0.16666700       0.35638700 </v>
   <v>       0.84692800       0.66666700       0.35638700 </v>
   <v>       0.84692800       0.66666700       0.21815900 </v>
   <v>       0.34692800       0.83333600       0.21815900 </v>
   <v>       0.34692800       0.16666700       0.21815900 </v>
   <v>       0.84692800       0.00000000       0.21815900 </v>
   <v>       0.84692800       0.33333300       0.35638700 </v>
   <v>       0.34692800       0.83333600       0.05698300 </v>
   <v>       0.34692800       0.16666700       0.05698300 </v>
   <v>       0.34692800       0.50000000       0.05698300 </v>
   <v>       0.84692800       0.33333300       0.05698300 </v>
   <v>       0.84692800       0.66666700       0.05698300 </v>
   <v>       0.84692800       0.00000000       0.05698300 </v>
   <v>       0.84692800       0.00000000       0.35638700 </v>
   <v>       0.33333400       0.06715700       0.64645100 </v>
   <v>       0.83333500       0.23382400       0.64714600 </v>
   <v>       0.33333400       0.40049000       0.64782600 </v>
   <v>       0.83333500       0.56715700       0.64851200 </v>
   <v>       0.33333400       0.73382300       0.64920200 </v>
   <v>       0.83333500       0.90048800       0.64988900 </v>
   <v>       0.00000000       0.06715700       0.64645100 </v>
   <v>       0.00000000       0.95459700       0.93078000 </v>
   <v>       0.50000100       0.23382400       0.64714600 </v>
   <v>       0.50000100       0.78792600       0.93010000 </v>
   <v>       0.00000000       0.40049000       0.64782600 </v>
   <v>       0.00000000       0.62126200       0.92941400 </v>
   <v>       0.50000100       0.56715700       0.64851200 </v>
   <v>       0.50000100       0.45459500       0.92872500 </v>
   <v>       0.00000000       0.73382300       0.64920200 </v>
   <v>       0.00000000       0.28792900       0.92803900 </v>
   <v>       0.50000100       0.90048800       0.64988900 </v>
   <v>       0.50000100       0.12126200       0.92735000 </v>
   <v>       0.66666800       0.06715700       0.64645100 </v>
   <v>       0.66666800       0.95459700       0.93078000 </v>
   <v>       0.16666700       0.23382400       0.64714600 </v>
   <v>       0.16666700       0.78792600       0.93010000 </v>
   <v>       0.66666800       0.40049000       0.64782600 </v>
   <v>       0.66666800       0.62126200       0.92941400 </v>
   <v>       0.16666700       0.56715700       0.64851200 </v>
   <v>       0.16666700       0.45459500       0.92872500 </v>
   <v>       0.66666800       0.73382300       0.64920200 </v>
   <v>       0.66666800       0.28792900       0.92803900 </v>
   <v>       0.16666700       0.90048800       0.64988900 </v>
   <v>       0.16666700       0.12126200       0.92735000 </v>
   <v>       0.33333400       0.95459700       0.93078000 </v>
   <v>       0.83333500       0.78792600       0.93010000 </v>
   <v>       0.33333400       0.62126200       0.92941400 </v>
   <v>       0.83333500       0.45459500       0.92872500 </v>
   <v>       0.33333400       0.28792900       0.92803900 </v>
   <v>       0.50000100       0.01087700       0.78655700 </v>
   <v>       0.83333500       0.01087700       0.78655700 </v>
   <v>       0.16666700       0.01087700       0.78655700 </v>
   <v>       0.83333500       0.12126200       0.92735000 </v>
   <v>       0.66666800       0.17754300       0.78724600 </v>
   <v>       0.00000000       0.17754300       0.78724600 </v>
   <v>       0.33333400       0.17754300       0.78724600 </v>
   <v>       0.83333500       0.34421000       0.78793300 </v>
   <v>       0.16666700       0.34421000       0.78793300 </v>
   <v>       0.66666800       0.51087600       0.78861900 </v>
   <v>       0.00000000       0.51087600       0.78861900 </v>
   <v>       0.50000100       0.34421000       0.78793300 </v>
   <v>       0.33333400       0.51087600       0.78861900 </v>
   <v>       0.69385400       0.94897300       0.13757100 </v>
   <v>       0.84692800       0.76871800       0.13757100 </v>
   <v>       0.50000000       0.78230900       0.13757100 </v>
   <v>       0.00000000       0.94897300       0.13757100 </v>
   <v>       0.19385400       0.11564200       0.13757100 </v>
   <v>       0.34692800       0.93538200       0.13757100 </v>
   <v>       0.69385400       0.28230900       0.13757100 </v>
   <v>       0.84692800       0.10204900       0.13757100 </v>
   <v>       0.50000000       0.11564300       0.13757100 </v>
   <v>       0.00000000       0.28230900       0.13757100 </v>
   <v>       0.19385400       0.44897600       0.13757100 </v>
   <v>       0.34692800       0.26871500       0.13757100 </v>
   <v>       0.69385400       0.61564200       0.13757100 </v>
   <v>       0.84692800       0.43538200       0.13757100 </v>
   <v>       0.50000000       0.44897600       0.13757100 </v>
   <v>       0.00000000       0.61564200       0.13757100 </v>
   <v>       0.19385400       0.78230900       0.13757100 </v>
   <v>       0.34692800       0.60204800       0.13757100 </v>
   <v>       0.86052100       0.21769100       0.26913200 </v>
   <v>       0.16666700       0.21769100       0.26913200 </v>
   <v>       0.01359400       0.06461800       0.26913200 </v>
   <v>       0.51359300       0.56461800       0.26913200 </v>
   <v>       0.36052100       0.71769100       0.26913200 </v>
   <v>       0.66666700       0.71769100       0.26913200 </v>
   <v>       0.01359400       0.39795100       0.26913200 </v>
   <v>       0.16666700       0.55102500       0.26913200 </v>
   <v>       0.86052100       0.55102500       0.26913200 </v>
   <v>       0.51359300       0.89795300       0.26913200 </v>
   <v>       0.36052100       0.05102500       0.26913200 </v>
   <v>       0.66666700       0.05102500       0.26913200 </v>
   <v>       0.51359300       0.23128500       0.26913200 </v>
   <v>       0.36052100       0.38435800       0.26913200 </v>
   <v>       0.66666700       0.38435800       0.26913200 </v>
   <v>       0.50601964       0.76723490       0.40462434 </v>
   <v>       0.13681426       0.48102761       0.56752044 </v>
   <v>       0.18550600       0.42958900       0.39559700 </v>
   <v>       0.16666700       0.88435600       0.26913200 </v>
   <v>       0.86052100       0.88435600       0.26913200 </v>
   <v>       0.01359400       0.73128200       0.26913200 </v>
   <v>       0.50367200       0.10281900       0.43690900 </v>
   <v>       0.18548000       0.08179800       0.38605500 </v>
   <v>       0.06435000       0.92266200       0.41062800 </v>
   <v>       0.20802900       0.94701400       0.40909200 </v>
   <v>       0.87867100       0.78180900       0.40160900 </v>
   <v>       0.16571800       0.77223900       0.38400600 </v>
   <v>       0.49949500       0.43832900       0.43607400 </v>
   <v>       0.34400100       0.28704100       0.38917400 </v>
   <v>       0.66346100       0.26827800       0.39211000 </v>
   <v>       0.66777855       0.28877292       0.58631711 </v>
   <v>       0.05341600       0.63734400       0.40240300 </v>
  </varray>
  <varray name="selective"  type="logical" >
   <v type="logical" >  F  F  F </v>
   <v type="logical" >  F  F  F </v>
   <v type="logical" >  F  F  F </v>
   <v type="logical" >  F  F  F </v>
   <v type="logical" >  F  F  F </v>
   <v type="logical" >  F  F  F </v>
   <v type="logical" >  F  F  F </v>
   <v type="logical" >  F  F  F </v>
   <v type="logical" >  F  F  F </v>
   <v type="logical" >  F  F  F </v>
   <v type="logical" >  F  F  F </v>
   <v type="logical" >  F  F  F </v>
   <v type="logical" >  F  F  F </v>
   <v type="logical" >  F  F  F </v>
   <v type="logical" >  F  F  F </v>
   <v type="logical" >  F  F  F </v>
   <v type="logical" >  F  F  F </v>
   <v type="logical" >  F  F  F </v>
   <v type="logical" >  F  F  F </v>
   <v type="logical" >  F  F  F </v>
   <v type="logical" >  F  F  F </v>
   <v type="logical" >  F  F  F </v>
   <v type="logical" >  F  F  F </v>
   <v type="logical" >  F  F  F </v>
   <v type="logical" >  F  F  F </v>
   <v type="logical" >  F  F  F </v>
   <v type="logical" >  F  F  F </v>
   <v type="logical" >  T  T  T </v>
   <v type="logical" >  T  T  T </v>
   <v type="logical" >  T  T  T </v>
   <v type="logical" >  F  F  F </v>
   <v type="logical" >  T  T  T </v>
   <v type="logical" >  T  T  T </v>
   <v type="logical" >  F  F  F </v>
   <v type="logical" >  F  F  F </v>
   <v type="logical" >  F  F  F </v>
   <v type="logical" >  F  F  F </v>
   <v type="logical" >  F  F  F </v>
   <v type="logical" >  F  F  F </v>
   <v type="logical" >  F  F  F </v>
   <v type="logical" >  F  F  F </v>
   <v type="logical" >  F  F  F </v>
   <v type="logical" >  F  F  F </v>
   <v type="logical" >  F  F  F </v>
   <v type="logical" >  F  F  F </v>
   <v type="logical" >  F  F  F </v>
   <v type="logical" >  F  F  F </v>
   <v type="logical" >  F  F  F </v>
   <v type="logical" >  F  F  F </v>
   <v type="logical" >  F  F  F </v>
   <v type="logical" >  F  F  F </v>
   <v type="logical" >  F  F  F </v>
   <v type="logical" >  F  F  F </v>
   <v type="logical" >  F  F  F </v>
   <v type="logical" >  F  F  F </v>
   <v type="logical" >  F  F  F </v>
   <v type="logical" >  F  F  F </v>
   <v type="logical" >  F  F  F </v>
   <v type="logical" >  F  F  F </v>
   <v type="logical" >  F  F  F </v>
   <v type="logical" >  F  F  F </v>
   <v type="logical" >  F  F  F </v>
   <v type="logical" >  F  F  F </v>
   <v type="logical" >  F  F  F </v>
   <v type="logical" >  F  F  F </v>
   <v type="logical" >  F  F  F </v>
   <v type="logical" >  F  F  F </v>
   <v type="logical" >  F  F  F </v>
   <v type="logical" >  F  F  F </v>
   <v type="logical" >  F  F  F </v>
   <v type="logical" >  F  F  F </v>
   <v type="logical" >  F  F  F </v>
   <v type="logical" >  F  F  F </v>
   <v type="logical" >  F  F  F </v>
   <v type="logical" >  F  F  F </v>
   <v type="logical" >  F  F  F </v>
   <v type="logical" >  F  F  F </v>
   <v type="logical" >  F  F  F </v>
   <v type="logical" >  F  F  F </v>
   <v type="logical" >  F  F  F </v>
   <v type="logical" >  F  F  F </v>
   <v type="logical" >  F  F  F </v>
   <v type="logical" >  F  F  F </v>
   <v type="logical" >  F  F  F </v>
   <v type="logical" >  F  F  F </v>
   <v type="logical" >  F  F  F </v>
   <v type="logical" >  F  F  F </v>
   <v type="logical" >  F  F  F </v>
   <v type="logical" >  F  F  F </v>
   <v type="logical" >  F  F  F </v>
   <v type="logical" >  F  F  F </v>
   <v type="logical" >  F  F  F </v>
   <v type="logical" >  F  F  F </v>
   <v type="logical" >  F  F  F </v>
   <v type="logical" >  F  F  F </v>
   <v type="logical" >  F  F  F </v>
   <v type="logical" >  F  F  F </v>
   <v type="logical" >  F  F  F </v>
   <v type="logical" >  F  F  F </v>
   <v type="logical" >  F  F  F </v>
   <v type="logical" >  F  F  F </v>
   <v type="logical" >  F  F  F </v>
   <v type="logical" >  F  F  F </v>
   <v type="logical" >  F  F  F </v>
   <v type="logical" >  F  F  F </v>
   <v type="logical" >  F  F  F </v>
   <v type="logical" >  F  F  F </v>
   <v type="logical" >  F  F  F </v>
   <v type="logical" >  F  F  F </v>
   <v type="logical" >  F  F  F </v>
   <v type="logical" >  F  F  F </v>
   <v type="logical" >  F  F  F </v>
   <v type="logical" >  F  F  F </v>
   <v type="logical" >  F  F  F </v>
   <v type="logical" >  F  F  F </v>
   <v type="logical" >  F  F  F </v>
   <v type="logical" >  F  F  F </v>
   <v type="logical" >  F  F  F </v>
   <v type="logical" >  F  F  F </v>
   <v type="logical" >  F  F  F </v>
   <v type="logical" >  F  F  F </v>
   <v type="logical" >  F  F  F </v>
   <v type="logical" >  F  F  F </v>
   <v type="logical" >  F  F  F </v>
   <v type="logical" >  F  F  F </v>
   <v type="logical" >  F  F  F </v>
   <v type="logical" >  F  F  F </v>
   <v type="logical" >  F  F  F </v>
   <v type="logical" >  T  T  T </v>
   <v type="logical" >  T  T  T </v>
   <v type="logical" >  F  F  F </v>
   <v type="logical" >  F  F  F </v>
   <v type="logical" >  F  F  F </v>
   <v type="logical" >  F  F  F </v>
   <v type="logical" >  F  F  F </v>
   <v type="logical" >  F  F  F </v>
   <v type="logical" >  F  F  F </v>
   <v type="logical" >  F  F  F </v>
   <v type="logical" >  F  F  F </v>
   <v type="logical" >  F  F  F </v>
   <v type="logical" >  F  F  F </v>
   <v type="logical" >  F  F  F </v>
   <v type="logical" >  F  F  F </v>
   <v type="logical" >  T  T  T </v>
   <v type="logical" >  F  F  F </v>
  </varray>
  <nose>
   <v>      -3.00000000       0.00000000       0.00010000       0.00010000 </v>
  </nose>
 </structure>
</modeling>
