Al_Al2O3                                
           1
     8.428300    0.000000    0.000000
     0.000000   14.598200    0.000000
     0.000000    0.000000   16.583210
   Al   O 
  95  50
Direct configuration=     1
   0.83333500  0.67754300  0.78930800
   0.00000000  0.84420700  0.78999400
   0.16666700  0.67754300  0.78930800
   0.66666800  0.84420700  0.78999400
   0.50000100  0.67754300  0.78930800
   0.33333400  0.84420700  0.78999400
   0.68026100  0.83333600  0.08660300
   0.01359400  0.83333600  0.18854400
   0.18025900  0.00000000  0.08660300
   0.51359300  0.00000000  0.18854400
   0.68026100  0.16666700  0.08660300
   0.18025900  0.33333300  0.08660300
   0.51359300  0.33333300  0.18854400
   0.01359400  0.16666700  0.18854400
   0.68026100  0.50000000  0.08660300
   0.18025900  0.66666600  0.08660300
   0.51359300  0.66666600  0.18854400
   0.01359400  0.50000000  0.18854400
   0.01359400  0.16666700  0.32676700
   0.84692800  0.33333300  0.21815900
   0.51359300  0.66666600  0.32676700
   0.34692800  0.50000000  0.21815900
   0.01359400  0.50000000  0.32676700
   0.51359300  0.00000000  0.32676700
   0.51359300  0.33333300  0.32676700
   0.34692800  0.50000000  0.35638700
   0.01359400  0.83333600  0.32676700
   0.56895200  0.92747100  0.48050300
   0.51359300  0.00000000  0.50475100
   0.05634700  0.77558200  0.47218300
   0.34692800  0.83333600  0.35638700
   0.84692800  0.33333300  0.52844300
   0.01359400  0.50000000  0.50475100
   0.34692800  0.16666700  0.35638700
   0.84692800  0.66666700  0.35638700
   0.84692800  0.66666700  0.21815900
   0.34692800  0.83333600  0.21815900
   0.34692800  0.16666700  0.21815900
   0.84692800  0.00000000  0.21815900
   0.84692800  0.33333300  0.35638700
   0.34692800  0.83333600  0.05698300
   0.34692800  0.16666700  0.05698300
   0.34692800  0.50000000  0.05698300
   0.84692800  0.33333300  0.05698300
   0.84692800  0.66666700  0.05698300
   0.84692800  0.00000000  0.05698300
   0.84692800  0.00000000  0.35638700
   0.33333400  0.06715700  0.64645100
   0.83333500  0.23382400  0.64714600
   0.33333400  0.40049000  0.64782600
   0.83333500  0.56715700  0.64851200
   0.33333400  0.73382300  0.64920200
   0.83333500  0.90048800  0.64988900
   0.00000000  0.06715700  0.64645100
   0.00000000  0.95459700  0.93078000
   0.50000100  0.23382400  0.64714600
   0.50000100  0.78792600  0.93010000
   0.00000000  0.40049000  0.64782600
   0.00000000  0.62126200  0.92941400
   0.50000100  0.56715700  0.64851200
   0.50000100  0.45459500  0.92872500
   0.00000000  0.73382300  0.64920200
   0.00000000  0.28792900  0.92803900
   0.50000100  0.90048800  0.64988900
   0.50000100  0.12126200  0.92735000
   0.66666800  0.06715700  0.64645100
   0.66666800  0.95459700  0.93078000
   0.16666700  0.23382400  0.64714600
   0.16666700  0.78792600  0.93010000
   0.66666800  0.40049000  0.64782600
   0.66666800  0.62126200  0.92941400
   0.16666700  0.56715700  0.64851200
   0.16666700  0.45459500  0.92872500
   0.66666800  0.73382300  0.64920200
   0.66666800  0.28792900  0.92803900
   0.16666700  0.90048800  0.64988900
   0.16666700  0.12126200  0.92735000
   0.33333400  0.95459700  0.93078000
   0.83333500  0.78792600  0.93010000
   0.33333400  0.62126200  0.92941400
   0.83333500  0.45459500  0.92872500
   0.33333400  0.28792900  0.92803900
   0.50000100  0.01087700  0.78655700
   0.83333500  0.01087700  0.78655700
   0.16666700  0.01087700  0.78655700
   0.83333500  0.12126200  0.92735000
   0.66666800  0.17754300  0.78724600
   0.00000000  0.17754300  0.78724600
   0.33333400  0.17754300  0.78724600
   0.83333500  0.34421000  0.78793300
   0.16666700  0.34421000  0.78793300
   0.66666800  0.51087600  0.78861900
   0.00000000  0.51087600  0.78861900
   0.50000100  0.34421000  0.78793300
   0.33333400  0.51087600  0.78861900
   0.69385400  0.94897300  0.13757100
   0.84692800  0.76871800  0.13757100
   0.50000000  0.78230900  0.13757100
   0.00000000  0.94897300  0.13757100
   0.19385400  0.11564200  0.13757100
   0.34692800  0.93538200  0.13757100
   0.69385400  0.28230900  0.13757100
   0.84692800  0.10204900  0.13757100
   0.50000000  0.11564300  0.13757100
   0.00000000  0.28230900  0.13757100
   0.19385400  0.44897600  0.13757100
   0.34692800  0.26871500  0.13757100
   0.69385400  0.61564200  0.13757100
   0.84692800  0.43538200  0.13757100
   0.50000000  0.44897600  0.13757100
   0.00000000  0.61564200  0.13757100
   0.19385400  0.78230900  0.13757100
   0.34692800  0.60204800  0.13757100
   0.86052100  0.21769100  0.26913200
   0.16666700  0.21769100  0.26913200
   0.01359400  0.06461800  0.26913200
   0.51359300  0.56461800  0.26913200
   0.36052100  0.71769100  0.26913200
   0.66666700  0.71769100  0.26913200
   0.01359400  0.39795100  0.26913200
   0.16666700  0.55102500  0.26913200
   0.86052100  0.55102500  0.26913200
   0.51359300  0.89795300  0.26913200
   0.36052100  0.05102500  0.26913200
   0.66666700  0.05102500  0.26913200
   0.51359300  0.23128500  0.26913200
   0.36052100  0.38435800  0.26913200
   0.66666700  0.38435800  0.26913200
   0.50000000  0.78230900  0.46397200
   0.24245800  0.44887700  0.47728100
   0.18550600  0.42958900  0.39559700
   0.16666700  0.88435600  0.26913200
   0.86052100  0.88435600  0.26913200
   0.01359400  0.73128200  0.26913200
   0.50367200  0.10281900  0.43690900
   0.18548000  0.08179800  0.38605500
   0.06435000  0.92266200  0.41062800
   0.20802900  0.94701400  0.40909200
   0.87867100  0.78180900  0.40160900
   0.16571800  0.77223900  0.38400600
   0.49949500  0.43832900  0.43607400
   0.34400100  0.28704100  0.38917400
   0.66346100  0.26827800  0.39211000
   0.69297700  0.28312800  0.47927400
   0.05341600  0.63734400  0.40240300
Direct configuration=     2
   0.83333500  0.67754300  0.78930800
   0.00000000  0.84420700  0.78999400
   0.16666700  0.67754300  0.78930800
   0.66666800  0.84420700  0.78999400
   0.50000100  0.67754300  0.78930800
   0.33333400  0.84420700  0.78999400
   0.68026100  0.83333600  0.08660300
   0.01359400  0.83333600  0.18854400
   0.18025900  0.00000000  0.08660300
   0.51359300  0.00000000  0.18854400
   0.68026100  0.16666700  0.08660300
   0.18025900  0.33333300  0.08660300
   0.51359300  0.33333300  0.18854400
   0.01359400  0.16666700  0.18854400
   0.68026100  0.50000000  0.08660300
   0.18025900  0.66666600  0.08660300
   0.51359300  0.66666600  0.18854400
   0.01359400  0.50000000  0.18854400
   0.01359400  0.16666700  0.32676700
   0.84692800  0.33333300  0.21815900
   0.51359300  0.66666600  0.32676700
   0.34692800  0.50000000  0.21815900
   0.01359400  0.50000000  0.32676700
   0.51359300  0.00000000  0.32676700
   0.51359300  0.33333300  0.32676700
   0.34692800  0.50000000  0.35638700
   0.01359400  0.83333600  0.32676700
   0.69933925  0.74354450  0.42223939
   0.37970658  0.18076350  0.55584612
   0.04820530  0.77206981  0.47162932
   0.34692800  0.83333600  0.35638700
   0.85290519  0.33721470  0.52427648
   0.02256084  0.50025074  0.50239996
   0.34692800  0.16666700  0.35638700
   0.84692800  0.66666700  0.35638700
   0.84692800  0.66666700  0.21815900
   0.34692800  0.83333600  0.21815900
   0.34692800  0.16666700  0.21815900
   0.84692800  0.00000000  0.21815900
   0.84692800  0.33333300  0.35638700
   0.34692800  0.83333600  0.05698300
   0.34692800  0.16666700  0.05698300
   0.34692800  0.50000000  0.05698300
   0.84692800  0.33333300  0.05698300
   0.84692800  0.66666700  0.05698300
   0.84692800  0.00000000  0.05698300
   0.84692800  0.00000000  0.35638700
   0.33333400  0.06715700  0.64645100
   0.83333500  0.23382400  0.64714600
   0.33333400  0.40049000  0.64782600
   0.83333500  0.56715700  0.64851200
   0.33333400  0.73382300  0.64920200
   0.83333500  0.90048800  0.64988900
   0.00000000  0.06715700  0.64645100
   0.00000000  0.95459700  0.93078000
   0.50000100  0.23382400  0.64714600
   0.50000100  0.78792600  0.93010000
   0.00000000  0.40049000  0.64782600
   0.00000000  0.62126200  0.92941400
   0.50000100  0.56715700  0.64851200
   0.50000100  0.45459500  0.92872500
   0.00000000  0.73382300  0.64920200
   0.00000000  0.28792900  0.92803900
   0.50000100  0.90048800  0.64988900
   0.50000100  0.12126200  0.92735000
   0.66666800  0.06715700  0.64645100
   0.66666800  0.95459700  0.93078000
   0.16666700  0.23382400  0.64714600
   0.16666700  0.78792600  0.93010000
   0.66666800  0.40049000  0.64782600
   0.66666800  0.62126200  0.92941400
   0.16666700  0.56715700  0.64851200
   0.16666700  0.45459500  0.92872500
   0.66666800  0.73382300  0.64920200
   0.66666800  0.28792900  0.92803900
   0.16666700  0.90048800  0.64988900
   0.16666700  0.12126200  0.92735000
   0.33333400  0.95459700  0.93078000
   0.83333500  0.78792600  0.93010000
   0.33333400  0.62126200  0.92941400
   0.83333500  0.45459500  0.92872500
   0.33333400  0.28792900  0.92803900
   0.50000100  0.01087700  0.78655700
   0.83333500  0.01087700  0.78655700
   0.16666700  0.01087700  0.78655700
   0.83333500  0.12126200  0.92735000
   0.66666800  0.17754300  0.78724600
   0.00000000  0.17754300  0.78724600
   0.33333400  0.17754300  0.78724600
   0.83333500  0.34421000  0.78793300
   0.16666700  0.34421000  0.78793300
   0.66666800  0.51087600  0.78861900
   0.00000000  0.51087600  0.78861900
   0.50000100  0.34421000  0.78793300
   0.33333400  0.51087600  0.78861900
   0.69385400  0.94897300  0.13757100
   0.84692800  0.76871800  0.13757100
   0.50000000  0.78230900  0.13757100
   0.00000000  0.94897300  0.13757100
   0.19385400  0.11564200  0.13757100
   0.34692800  0.93538200  0.13757100
   0.69385400  0.28230900  0.13757100
   0.84692800  0.10204900  0.13757100
   0.50000000  0.11564300  0.13757100
   0.00000000  0.28230900  0.13757100
   0.19385400  0.44897600  0.13757100
   0.34692800  0.26871500  0.13757100
   0.69385400  0.61564200  0.13757100
   0.84692800  0.43538200  0.13757100
   0.50000000  0.44897600  0.13757100
   0.00000000  0.61564200  0.13757100
   0.19385400  0.78230900  0.13757100
   0.34692800  0.60204800  0.13757100
   0.86052100  0.21769100  0.26913200
   0.16666700  0.21769100  0.26913200
   0.01359400  0.06461800  0.26913200
   0.51359300  0.56461800  0.26913200
   0.36052100  0.71769100  0.26913200
   0.66666700  0.71769100  0.26913200
   0.01359400  0.39795100  0.26913200
   0.16666700  0.55102500  0.26913200
   0.86052100  0.55102500  0.26913200
   0.51359300  0.89795300  0.26913200
   0.36052100  0.05102500  0.26913200
   0.66666700  0.05102500  0.26913200
   0.51359300  0.23128500  0.26913200
   0.36052100  0.38435800  0.26913200
   0.66666700  0.38435800  0.26913200
   0.49696137  0.78894976  0.45729534
   0.22485010  0.45366840  0.48243367
   0.18550600  0.42958900  0.39559700
   0.16666700  0.88435600  0.26913200
   0.86052100  0.88435600  0.26913200
   0.01359400  0.73128200  0.26913200
   0.50367200  0.10281900  0.43690900
   0.18548000  0.08179800  0.38605500
   0.06435000  0.92266200  0.41062800
   0.20802900  0.94701400  0.40909200
   0.87867100  0.78180900  0.40160900
   0.16571800  0.77223900  0.38400600
   0.49949500  0.43832900  0.43607400
   0.34400100  0.28704100  0.38917400
   0.66346100  0.26827800  0.39211000
   0.68246201  0.28019296  0.47777900
   0.05341600  0.63734400  0.40240300
Direct configuration=     3
   0.83333500  0.67754300  0.78930800
   0.00000000  0.84420700  0.78999400
   0.16666700  0.67754300  0.78930800
   0.66666800  0.84420700  0.78999400
   0.50000100  0.67754300  0.78930800
   0.33333400  0.84420700  0.78999400
   0.68026100  0.83333600  0.08660300
   0.01359400  0.83333600  0.18854400
   0.18025900  0.00000000  0.08660300
   0.51359300  0.00000000  0.18854400
   0.68026100  0.16666700  0.08660300
   0.18025900  0.33333300  0.08660300
   0.51359300  0.33333300  0.18854400
   0.01359400  0.16666700  0.18854400
   0.68026100  0.50000000  0.08660300
   0.18025900  0.66666600  0.08660300
   0.51359300  0.66666600  0.18854400
   0.01359400  0.50000000  0.18854400
   0.01359400  0.16666700  0.32676700
   0.84692800  0.33333300  0.21815900
   0.51359300  0.66666600  0.32676700
   0.34692800  0.50000000  0.21815900
   0.01359400  0.50000000  0.32676700
   0.51359300  0.00000000  0.32676700
   0.51359300  0.33333300  0.32676700
   0.34692800  0.50000000  0.35638700
   0.01359400  0.83333600  0.32676700
   0.68691623  0.76106863  0.42779063
   0.39246299  0.16354073  0.55097789
   0.04898102  0.77240444  0.47168207
   0.34692800  0.83333600  0.35638700
   0.85233569  0.33684486  0.52467346
   0.02170650  0.50022685  0.50262396
   0.34692800  0.16666700  0.35638700
   0.84692800  0.66666700  0.35638700
   0.84692800  0.66666700  0.21815900
   0.34692800  0.83333600  0.21815900
   0.34692800  0.16666700  0.21815900
   0.84692800  0.00000000  0.21815900
   0.84692800  0.33333300  0.35638700
   0.34692800  0.83333600  0.05698300
   0.34692800  0.16666700  0.05698300
   0.34692800  0.50000000  0.05698300
   0.84692800  0.33333300  0.05698300
   0.84692800  0.66666700  0.05698300
   0.84692800  0.00000000  0.05698300
   0.84692800  0.00000000  0.35638700
   0.33333400  0.06715700  0.64645100
   0.83333500  0.23382400  0.64714600
   0.33333400  0.40049000  0.64782600
   0.83333500  0.56715700  0.64851200
   0.33333400  0.73382300  0.64920200
   0.83333500  0.90048800  0.64988900
   0.00000000  0.06715700  0.64645100
   0.00000000  0.95459700  0.93078000
   0.50000100  0.23382400  0.64714600
   0.50000100  0.78792600  0.93010000
   0.00000000  0.40049000  0.64782600
   0.00000000  0.62126200  0.92941400
   0.50000100  0.56715700  0.64851200
   0.50000100  0.45459500  0.92872500
   0.00000000  0.73382300  0.64920200
   0.00000000  0.28792900  0.92803900
   0.50000100  0.90048800  0.64988900
   0.50000100  0.12126200  0.92735000
   0.66666800  0.06715700  0.64645100
   0.66666800  0.95459700  0.93078000
   0.16666700  0.23382400  0.64714600
   0.16666700  0.78792600  0.93010000
   0.66666800  0.40049000  0.64782600
   0.66666800  0.62126200  0.92941400
   0.16666700  0.56715700  0.64851200
   0.16666700  0.45459500  0.92872500
   0.66666800  0.73382300  0.64920200
   0.66666800  0.28792900  0.92803900
   0.16666700  0.90048800  0.64988900
   0.16666700  0.12126200  0.92735000
   0.33333400  0.95459700  0.93078000
   0.83333500  0.78792600  0.93010000
   0.33333400  0.62126200  0.92941400
   0.83333500  0.45459500  0.92872500
   0.33333400  0.28792900  0.92803900
   0.50000100  0.01087700  0.78655700
   0.83333500  0.01087700  0.78655700
   0.16666700  0.01087700  0.78655700
   0.83333500  0.12126200  0.92735000
   0.66666800  0.17754300  0.78724600
   0.00000000  0.17754300  0.78724600
   0.33333400  0.17754300  0.78724600
   0.83333500  0.34421000  0.78793300
   0.16666700  0.34421000  0.78793300
   0.66666800  0.51087600  0.78861900
   0.00000000  0.51087600  0.78861900
   0.50000100  0.34421000  0.78793300
   0.33333400  0.51087600  0.78861900
   0.69385400  0.94897300  0.13757100
   0.84692800  0.76871800  0.13757100
   0.50000000  0.78230900  0.13757100
   0.00000000  0.94897300  0.13757100
   0.19385400  0.11564200  0.13757100
   0.34692800  0.93538200  0.13757100
   0.69385400  0.28230900  0.13757100
   0.84692800  0.10204900  0.13757100
   0.50000000  0.11564300  0.13757100
   0.00000000  0.28230900  0.13757100
   0.19385400  0.44897600  0.13757100
   0.34692800  0.26871500  0.13757100
   0.69385400  0.61564200  0.13757100
   0.84692800  0.43538200  0.13757100
   0.50000000  0.44897600  0.13757100
   0.00000000  0.61564200  0.13757100
   0.19385400  0.78230900  0.13757100
   0.34692800  0.60204800  0.13757100
   0.86052100  0.21769100  0.26913200
   0.16666700  0.21769100  0.26913200
   0.01359400  0.06461800  0.26913200
   0.51359300  0.56461800  0.26913200
   0.36052100  0.71769100  0.26913200
   0.66666700  0.71769100  0.26913200
   0.01359400  0.39795100  0.26913200
   0.16666700  0.55102500  0.26913200
   0.86052100  0.55102500  0.26913200
   0.51359300  0.89795300  0.26913200
   0.36052100  0.05102500  0.26913200
   0.66666700  0.05102500  0.26913200
   0.51359300  0.23128500  0.26913200
   0.36052100  0.38435800  0.26913200
   0.66666700  0.38435800  0.26913200
   0.49725088  0.78831704  0.45793148
   0.22652774  0.45321188  0.48194273
   0.18550600  0.42958900  0.39559700
   0.16666700  0.88435600  0.26913200
   0.86052100  0.88435600  0.26913200
   0.01359400  0.73128200  0.26913200
   0.50367200  0.10281900  0.43690900
   0.18548000  0.08179800  0.38605500
   0.06435000  0.92266200  0.41062800
   0.20802900  0.94701400  0.40909200
   0.87867100  0.78180900  0.40160900
   0.16571800  0.77223900  0.38400600
   0.49949500  0.43832900  0.43607400
   0.34400100  0.28704100  0.38917400
   0.66346100  0.26827800  0.39211000
   0.68346386  0.28047260  0.47792144
   0.05341600  0.63734400  0.40240300
Direct configuration=     4
   0.83333500  0.67754300  0.78930800
   0.00000000  0.84420700  0.78999400
   0.16666700  0.67754300  0.78930800
   0.66666800  0.84420700  0.78999400
   0.50000100  0.67754300  0.78930800
   0.33333400  0.84420700  0.78999400
   0.68026100  0.83333600  0.08660300
   0.01359400  0.83333600  0.18854400
   0.18025900  0.00000000  0.08660300
   0.51359300  0.00000000  0.18854400
   0.68026100  0.16666700  0.08660300
   0.18025900  0.33333300  0.08660300
   0.51359300  0.33333300  0.18854400
   0.01359400  0.16666700  0.18854400
   0.68026100  0.50000000  0.08660300
   0.18025900  0.66666600  0.08660300
   0.51359300  0.66666600  0.18854400
   0.01359400  0.50000000  0.18854400
   0.01359400  0.16666700  0.32676700
   0.84692800  0.33333300  0.21815900
   0.51359300  0.66666600  0.32676700
   0.34692800  0.50000000  0.21815900
   0.01359400  0.50000000  0.32676700
   0.51359300  0.00000000  0.32676700
   0.51359300  0.33333300  0.32676700
   0.34692800  0.50000000  0.35638700
   0.01359400  0.83333600  0.32676700
   0.68150503  0.76870176  0.43020862
   0.39801941  0.15603887  0.54885739
   0.04931891  0.77255020  0.47170505
   0.34692800  0.83333600  0.35638700
   0.85208763  0.33668376  0.52484637
   0.02133437  0.50021645  0.50272153
   0.34692800  0.16666700  0.35638700
   0.84692800  0.66666700  0.35638700
   0.84692800  0.66666700  0.21815900
   0.34692800  0.83333600  0.21815900
   0.34692800  0.16666700  0.21815900
   0.84692800  0.00000000  0.21815900
   0.84692800  0.33333300  0.35638700
   0.34692800  0.83333600  0.05698300
   0.34692800  0.16666700  0.05698300
   0.34692800  0.50000000  0.05698300
   0.84692800  0.33333300  0.05698300
   0.84692800  0.66666700  0.05698300
   0.84692800  0.00000000  0.05698300
   0.84692800  0.00000000  0.35638700
   0.33333400  0.06715700  0.64645100
   0.83333500  0.23382400  0.64714600
   0.33333400  0.40049000  0.64782600
   0.83333500  0.56715700  0.64851200
   0.33333400  0.73382300  0.64920200
   0.83333500  0.90048800  0.64988900
   0.00000000  0.06715700  0.64645100
   0.00000000  0.95459700  0.93078000
   0.50000100  0.23382400  0.64714600
   0.50000100  0.78792600  0.93010000
   0.00000000  0.40049000  0.64782600
   0.00000000  0.62126200  0.92941400
   0.50000100  0.56715700  0.64851200
   0.50000100  0.45459500  0.92872500
   0.00000000  0.73382300  0.64920200
   0.00000000  0.28792900  0.92803900
   0.50000100  0.90048800  0.64988900
   0.50000100  0.12126200  0.92735000
   0.66666800  0.06715700  0.64645100
   0.66666800  0.95459700  0.93078000
   0.16666700  0.23382400  0.64714600
   0.16666700  0.78792600  0.93010000
   0.66666800  0.40049000  0.64782600
   0.66666800  0.62126200  0.92941400
   0.16666700  0.56715700  0.64851200
   0.16666700  0.45459500  0.92872500
   0.66666800  0.73382300  0.64920200
   0.66666800  0.28792900  0.92803900
   0.16666700  0.90048800  0.64988900
   0.16666700  0.12126200  0.92735000
   0.33333400  0.95459700  0.93078000
   0.83333500  0.78792600  0.93010000
   0.33333400  0.62126200  0.92941400
   0.83333500  0.45459500  0.92872500
   0.33333400  0.28792900  0.92803900
   0.50000100  0.01087700  0.78655700
   0.83333500  0.01087700  0.78655700
   0.16666700  0.01087700  0.78655700
   0.83333500  0.12126200  0.92735000
   0.66666800  0.17754300  0.78724600
   0.00000000  0.17754300  0.78724600
   0.33333400  0.17754300  0.78724600
   0.83333500  0.34421000  0.78793300
   0.16666700  0.34421000  0.78793300
   0.66666800  0.51087600  0.78861900
   0.00000000  0.51087600  0.78861900
   0.50000100  0.34421000  0.78793300
   0.33333400  0.51087600  0.78861900
   0.69385400  0.94897300  0.13757100
   0.84692800  0.76871800  0.13757100
   0.50000000  0.78230900  0.13757100
   0.00000000  0.94897300  0.13757100
   0.19385400  0.11564200  0.13757100
   0.34692800  0.93538200  0.13757100
   0.69385400  0.28230900  0.13757100
   0.84692800  0.10204900  0.13757100
   0.50000000  0.11564300  0.13757100
   0.00000000  0.28230900  0.13757100
   0.19385400  0.44897600  0.13757100
   0.34692800  0.26871500  0.13757100
   0.69385400  0.61564200  0.13757100
   0.84692800  0.43538200  0.13757100
   0.50000000  0.44897600  0.13757100
   0.00000000  0.61564200  0.13757100
   0.19385400  0.78230900  0.13757100
   0.34692800  0.60204800  0.13757100
   0.86052100  0.21769100  0.26913200
   0.16666700  0.21769100  0.26913200
   0.01359400  0.06461800  0.26913200
   0.51359300  0.56461800  0.26913200
   0.36052100  0.71769100  0.26913200
   0.66666700  0.71769100  0.26913200
   0.01359400  0.39795100  0.26913200
   0.16666700  0.55102500  0.26913200
   0.86052100  0.55102500  0.26913200
   0.51359300  0.89795300  0.26913200
   0.36052100  0.05102500  0.26913200
   0.66666700  0.05102500  0.26913200
   0.51359300  0.23128500  0.26913200
   0.36052100  0.38435800  0.26913200
   0.66666700  0.38435800  0.26913200
   0.49737699  0.78804144  0.45820857
   0.22725849  0.45301304  0.48172889
   0.18550600  0.42958900  0.39559700
   0.16666700  0.88435600  0.26913200
   0.86052100  0.88435600  0.26913200
   0.01359400  0.73128200  0.26913200
   0.50367200  0.10281900  0.43690900
   0.18548000  0.08179800  0.38605500
   0.06435000  0.92266200  0.41062800
   0.20802900  0.94701400  0.40909200
   0.87867100  0.78180900  0.40160900
   0.16571800  0.77223900  0.38400600
   0.49949500  0.43832900  0.43607400
   0.34400100  0.28704100  0.38917400
   0.66346100  0.26827800  0.39211000
   0.68390024  0.28059441  0.47798348
   0.05341600  0.63734400  0.40240300
Direct configuration=     5
   0.83333500  0.67754300  0.78930800
   0.00000000  0.84420700  0.78999400
   0.16666700  0.67754300  0.78930800
   0.66666800  0.84420700  0.78999400
   0.50000100  0.67754300  0.78930800
   0.33333400  0.84420700  0.78999400
   0.68026100  0.83333600  0.08660300
   0.01359400  0.83333600  0.18854400
   0.18025900  0.00000000  0.08660300
   0.51359300  0.00000000  0.18854400
   0.68026100  0.16666700  0.08660300
   0.18025900  0.33333300  0.08660300
   0.51359300  0.33333300  0.18854400
   0.01359400  0.16666700  0.18854400
   0.68026100  0.50000000  0.08660300
   0.18025900  0.66666600  0.08660300
   0.51359300  0.66666600  0.18854400
   0.01359400  0.50000000  0.18854400
   0.01359400  0.16666700  0.32676700
   0.84692800  0.33333300  0.21815900
   0.51359300  0.66666600  0.32676700
   0.34692800  0.50000000  0.21815900
   0.01359400  0.50000000  0.32676700
   0.51359300  0.00000000  0.32676700
   0.51359300  0.33333300  0.32676700
   0.34692800  0.50000000  0.35638700
   0.01359400  0.83333600  0.32676700
   0.67564288  0.77697101  0.43282813
   0.40403888  0.14791183  0.54656018
   0.04968496  0.77270811  0.47172995
   0.34692800  0.83333600  0.35638700
   0.85181890  0.33650924  0.52503369
   0.02093122  0.50020517  0.50282723
   0.34692800  0.16666700  0.35638700
   0.84692800  0.66666700  0.35638700
   0.84692800  0.66666700  0.21815900
   0.34692800  0.83333600  0.21815900
   0.34692800  0.16666700  0.21815900
   0.84692800  0.00000000  0.21815900
   0.84692800  0.33333300  0.35638700
   0.34692800  0.83333600  0.05698300
   0.34692800  0.16666700  0.05698300
   0.34692800  0.50000000  0.05698300
   0.84692800  0.33333300  0.05698300
   0.84692800  0.66666700  0.05698300
   0.84692800  0.00000000  0.05698300
   0.84692800  0.00000000  0.35638700
   0.33333400  0.06715700  0.64645100
   0.83333500  0.23382400  0.64714600
   0.33333400  0.40049000  0.64782600
   0.83333500  0.56715700  0.64851200
   0.33333400  0.73382300  0.64920200
   0.83333500  0.90048800  0.64988900
   0.00000000  0.06715700  0.64645100
   0.00000000  0.95459700  0.93078000
   0.50000100  0.23382400  0.64714600
   0.50000100  0.78792600  0.93010000
   0.00000000  0.40049000  0.64782600
   0.00000000  0.62126200  0.92941400
   0.50000100  0.56715700  0.64851200
   0.50000100  0.45459500  0.92872500
   0.00000000  0.73382300  0.64920200
   0.00000000  0.28792900  0.92803900
   0.50000100  0.90048800  0.64988900
   0.50000100  0.12126200  0.92735000
   0.66666800  0.06715700  0.64645100
   0.66666800  0.95459700  0.93078000
   0.16666700  0.23382400  0.64714600
   0.16666700  0.78792600  0.93010000
   0.66666800  0.40049000  0.64782600
   0.66666800  0.62126200  0.92941400
   0.16666700  0.56715700  0.64851200
   0.16666700  0.45459500  0.92872500
   0.66666800  0.73382300  0.64920200
   0.66666800  0.28792900  0.92803900
   0.16666700  0.90048800  0.64988900
   0.16666700  0.12126200  0.92735000
   0.33333400  0.95459700  0.93078000
   0.83333500  0.78792600  0.93010000
   0.33333400  0.62126200  0.92941400
   0.83333500  0.45459500  0.92872500
   0.33333400  0.28792900  0.92803900
   0.50000100  0.01087700  0.78655700
   0.83333500  0.01087700  0.78655700
   0.16666700  0.01087700  0.78655700
   0.83333500  0.12126200  0.92735000
   0.66666800  0.17754300  0.78724600
   0.00000000  0.17754300  0.78724600
   0.33333400  0.17754300  0.78724600
   0.83333500  0.34421000  0.78793300
   0.16666700  0.34421000  0.78793300
   0.66666800  0.51087600  0.78861900
   0.00000000  0.51087600  0.78861900
   0.50000100  0.34421000  0.78793300
   0.33333400  0.51087600  0.78861900
   0.69385400  0.94897300  0.13757100
   0.84692800  0.76871800  0.13757100
   0.50000000  0.78230900  0.13757100
   0.00000000  0.94897300  0.13757100
   0.19385400  0.11564200  0.13757100
   0.34692800  0.93538200  0.13757100
   0.69385400  0.28230900  0.13757100
   0.84692800  0.10204900  0.13757100
   0.50000000  0.11564300  0.13757100
   0.00000000  0.28230900  0.13757100
   0.19385400  0.44897600  0.13757100
   0.34692800  0.26871500  0.13757100
   0.69385400  0.61564200  0.13757100
   0.84692800  0.43538200  0.13757100
   0.50000000  0.44897600  0.13757100
   0.00000000  0.61564200  0.13757100
   0.19385400  0.78230900  0.13757100
   0.34692800  0.60204800  0.13757100
   0.86052100  0.21769100  0.26913200
   0.16666700  0.21769100  0.26913200
   0.01359400  0.06461800  0.26913200
   0.51359300  0.56461800  0.26913200
   0.36052100  0.71769100  0.26913200
   0.66666700  0.71769100  0.26913200
   0.01359400  0.39795100  0.26913200
   0.16666700  0.55102500  0.26913200
   0.86052100  0.55102500  0.26913200
   0.51359300  0.89795300  0.26913200
   0.36052100  0.05102500  0.26913200
   0.66666700  0.05102500  0.26913200
   0.51359300  0.23128500  0.26913200
   0.36052100  0.38435800  0.26913200
   0.66666700  0.38435800  0.26913200
   0.49751360  0.78774288  0.45850875
   0.22805013  0.45279762  0.48149723
   0.18550600  0.42958900  0.39559700
   0.16666700  0.88435600  0.26913200
   0.86052100  0.88435600  0.26913200
   0.01359400  0.73128200  0.26913200
   0.50367200  0.10281900  0.43690900
   0.18548000  0.08179800  0.38605500
   0.06435000  0.92266200  0.41062800
   0.20802900  0.94701400  0.40909200
   0.87867100  0.78180900  0.40160900
   0.16571800  0.77223900  0.38400600
   0.49949500  0.43832900  0.43607400
   0.34400100  0.28704100  0.38917400
   0.66346100  0.26827800  0.39211000
   0.68437299  0.28072637  0.47805070
   0.05341600  0.63734400  0.40240300
Direct configuration=     6
   0.83333500  0.67754300  0.78930800
   0.00000000  0.84420700  0.78999400
   0.16666700  0.67754300  0.78930800
   0.66666800  0.84420700  0.78999400
   0.50000100  0.67754300  0.78930800
   0.33333400  0.84420700  0.78999400
   0.68026100  0.83333600  0.08660300
   0.01359400  0.83333600  0.18854400
   0.18025900  0.00000000  0.08660300
   0.51359300  0.00000000  0.18854400
   0.68026100  0.16666700  0.08660300
   0.18025900  0.33333300  0.08660300
   0.51359300  0.33333300  0.18854400
   0.01359400  0.16666700  0.18854400
   0.68026100  0.50000000  0.08660300
   0.18025900  0.66666600  0.08660300
   0.51359300  0.66666600  0.18854400
   0.01359400  0.50000000  0.18854400
   0.01359400  0.16666700  0.32676700
   0.84692800  0.33333300  0.21815900
   0.51359300  0.66666600  0.32676700
   0.34692800  0.50000000  0.21815900
   0.01359400  0.50000000  0.32676700
   0.51359300  0.00000000  0.32676700
   0.51359300  0.33333300  0.32676700
   0.34692800  0.50000000  0.35638700
   0.01359400  0.83333600  0.32676700
   0.69884416  0.77054134  0.43144511
   0.40792992  0.15234667  0.52221034
   0.05418034  0.76872819  0.47458259
   0.34692800  0.83333600  0.35638700
   0.85012586  0.33704226  0.52009302
   0.02650727  0.50102990  0.50149760
   0.34692800  0.16666700  0.35638700
   0.84692800  0.66666700  0.35638700
   0.84692800  0.66666700  0.21815900
   0.34692800  0.83333600  0.21815900
   0.34692800  0.16666700  0.21815900
   0.84692800  0.00000000  0.21815900
   0.84692800  0.33333300  0.35638700
   0.34692800  0.83333600  0.05698300
   0.34692800  0.16666700  0.05698300
   0.34692800  0.50000000  0.05698300
   0.84692800  0.33333300  0.05698300
   0.84692800  0.66666700  0.05698300
   0.84692800  0.00000000  0.05698300
   0.84692800  0.00000000  0.35638700
   0.33333400  0.06715700  0.64645100
   0.83333500  0.23382400  0.64714600
   0.33333400  0.40049000  0.64782600
   0.83333500  0.56715700  0.64851200
   0.33333400  0.73382300  0.64920200
   0.83333500  0.90048800  0.64988900
   0.00000000  0.06715700  0.64645100
   0.00000000  0.95459700  0.93078000