ITEM: TIMESTEP
1082
ITEM: NUMBER OF ATOMS
18
ITEM: BOX BOUNDS ff ff ff
0.0000000000000000e+00 1.8000000000000000e+01
0.0000000000000000e+00 1.8000000000000000e+01
0.0000000000000000e+00 1.8000000000000000e+01
ITEM: ATOMS id type x y z c_peatom 
11 2 7.40924 7.35123 7.29217 -3.51199 
1 1 6.19652 7.34618 8.6514 -5.12452 
13 2 9.93758 8.1585 8.09157 -2.448 
18 2 10.9526 7.18909 7.62065 -1.15036 
4 1 8.23193 9.05026 7.65665 -6.98772 
15 2 7.46218 10.9873 7.80001 -4.13228 
2 1 8.79271 11.6403 6.73374 -4.19029 
9 2 6.56298 9.24333 8.9991 -3.67642 
17 2 9.23046 10.0125 6.25212 -3.72507 
7 1 7.36501 8.66828 10.739 -5.38686 
8 2 7.3586 6.96123 10.0397 -3.73289 
14 2 8.76681 9.41036 9.62417 -4.30513 
3 1 8.03923 11.2098 9.66255 -5.16146 
12 2 9.84895 11.6116 9.84038 -3.56599 
6 1 10.3625 10.078 10.7675 -6.45862 
10 2 11.2837 9.23784 9.61199 -2.88339 
5 1 8.26577 10.6292 12.6111 -2.98967 
16 2 8.93571 9.16167 12.06 -4.69752 
