ITEM: TIMESTEP
474
ITEM: NUMBER OF ATOMS
18
ITEM: BOX BOUNDS ff ff ff
0.0000000000000000e+00 1.8000000000000000e+01
0.0000000000000000e+00 1.8000000000000000e+01
0.0000000000000000e+00 1.8000000000000000e+01
ITEM: ATOMS id type x y z c_peatom 
12 2 11.3543 8.76621 5.72042 -3.04404 
11 2 7.53749 5.87527 8.74262 -2.58128 
17 2 9.96826 7.97136 7.97687 -3.78986 
5 1 11.6351 7.60095 8.78735 -5.05384 
16 2 8.33125 10.7744 8.97031 -4.58632 
4 1 10.6771 9.54085 7.04249 -6.03012 
15 2 12.0944 9.29094 8.24826 -3.59013 
8 2 8.56232 5.49088 9.25463 -2.58128 
10 2 8.50444 7.75948 11.3911 -3.53127 
7 1 8.9349 8.74972 9.70619 -6.43537 
14 2 10.6922 7.73854 10.4181 -4.03459 
18 2 7.06029 9.36887 10.6339 -3.8265 
1 1 6.84616 11.0059 10.0337 -4.00948 
9 2 9.8069 10.0216 10.9573 -5.01803 
6 1 11.443 9.12887 11.4661 -4.81689 
2 1 9.54962 11.6195 10.0087 -3.62779 
13 2 10.3761 8.74814 12.932 -3.53111 
3 1 8.58954 9.29181 12.3673 -5.52781 
