ITEM: TIMESTEP
338
ITEM: NUMBER OF ATOMS
18
ITEM: BOX BOUNDS ff ff ff
0.0000000000000000e+00 1.8000000000000000e+01
0.0000000000000000e+00 1.8000000000000000e+01
0.0000000000000000e+00 1.8000000000000000e+01
ITEM: ATOMS id type x y z c_peatom
1 1 6.08385 8.86252 8.43964 -5.16974
2 1 8.51472 7.3397 8.25308 -5.84162
8 2 6.60993 7.11701 8.55525 -3.50823
3 1 11.6523 8.10072 7.89633 -6.00672
10 2 10.5115 6.57898 8.57305 -3.50197
11 2 10.046 8.78578 8.95288 -4.3428
12 2 7.97919 9.25964 8.10535 -4.01474
9 2 10.7109 9.00301 6.50738 -3.34689
4 1 9.86366 10.3184 7.58605 -5.77151
13 2 11.7264 10.1586 8.2159 -3.64651
14 2 8.55205 7.50063 10.1342 -3.90988
5 1 10.5285 7.26883 10.4246 -5.81372
15 2 12.0979 8.31724 9.86664 -3.70504
6 1 8.35616 9.48633 10.1111 -6.52627
16 2 6.38885 9.23316 10.1845 -3.42579
18 2 10.0364 9.03741 11.2343 -3.60307
7 1 11.2838 10.1146 10.1519 -5.86764
17 2 9.63327 10.9742 9.50187 -3.57583
