LAMMPS (12 Dec 2018)
Reading data file ...
  orthogonal box = (0 0 0) to (18 18 18)
  1 by 1 by 2 MPI processor grid
  reading atoms ...
  18 atoms
Reading potential file /blue/hennig/kvs.chaitanya/relaxation/Fantastx/develop_F19/august_20/test_algo/Ti-O.tersoff.zbl with DATE: 2018-05-16
WARNING: Using 'neigh_modify every 1 delay 0 check yes' setting during minimization (../min.cpp:168)
Neighbor list info ...
  update every 1 steps, delay 0 steps, check yes
  max neighbors/atom: 1000, page size: 100000
  master list distance cutoff = 5.35
  ghost atom cutoff = 5.35
  binsize = 2.675, bins = 7 7 7
  1 neighbor lists, perpetual/occasional/extra = 1 0 0
  (1) pair tersoff/zbl, perpetual
      attributes: full, newton on
      pair build: full/bin/atomonly
      stencil: full/bin/3d
      bin: standard
Setting up cg style minimization ...
  Unit style    : metal
  Current step  : 0
Per MPI rank memory allocation (min/avg/max) = 4.045 | 4.233 | 4.42 Mbytes
Step Temp E_pair E_mol TotEng Press 
       0            0   -36.652402            0   -36.652402    22206.458 
       1            0   -46.495278            0   -46.495278    17093.901 
Loop time of 0.000860095 on 2 procs for 1 steps with 18 atoms

41.3% CPU use with 2 MPI tasks x no OpenMP threads

Minimization stats:
  Stopping criterion = max force evaluations
  Energy initial, next-to-last, final = 
        -36.6524021387     -36.6524021387     -46.4952784754
  Force two-norm initial, final = 57.2588 36.2296
  Force max component initial, final = 26.5977 13.7606
  Final line search alpha, max atom move = 0.00375973 0.051736
  Iterations, force evaluations = 1 1

MPI task timing breakdown:
Section |  min time  |  avg time  |  max time  |%varavg| %total
---------------------------------------------------------------
Pair    | 0.00018787 | 0.00019658 | 0.00020528 |   0.0 | 22.86
Neigh   | 0          | 0          | 0          |   0.0 |  0.00
Comm    | 0.00029373 | 0.00032389 | 0.00035405 |   0.0 | 37.66
Output  | 0          | 0          | 0          |   0.0 |  0.00
Modify  | 0          | 0          | 0          |   0.0 |  0.00
Other   |            | 0.0003396  |            |       | 39.49

Nlocal:    9 ave 11 max 7 min
Histogram: 1 0 0 0 0 0 0 0 0 1
Nghost:    9 ave 11 max 7 min
Histogram: 1 0 0 0 0 0 0 0 0 1
Neighs:    0 ave 0 max 0 min
Histogram: 2 0 0 0 0 0 0 0 0 0
FullNghs:  141 ave 170 max 112 min
Histogram: 1 0 0 0 0 0 0 0 0 1

Total # of neighbors = 282
Ave neighs/atom = 15.6667
Neighbor list builds = 0
Dangerous builds = 0
WARNING: Using 'neigh_modify every 1 delay 0 check yes' setting during minimization (../min.cpp:168)
Setting up cg style minimization ...
  Unit style    : metal
  Current step  : 1
Per MPI rank memory allocation (min/avg/max) = 4.045 | 4.233 | 4.42 Mbytes
Step Temp E_pair E_mol TotEng Press 
       1            0   -46.495278            0   -46.495278    17093.901 
    1001            0     -77.9824            0     -77.9824   -1.0214318 
Loop time of 0.300631 on 2 procs for 1000 steps with 18 atoms

96.9% CPU use with 2 MPI tasks x no OpenMP threads

Minimization stats:
  Stopping criterion = max iterations
  Energy initial, next-to-last, final = 
        -46.4952784754     -77.9823940025     -77.9824004211
  Force two-norm initial, final = 36.2296 0.00832059
  Force max component initial, final = 13.7606 0.00288124
  Final line search alpha, max atom move = 1 0.00288124
  Iterations, force evaluations = 1000 2654

MPI task timing breakdown:
Section |  min time  |  avg time  |  max time  |%varavg| %total
---------------------------------------------------------------
Pair    | 0.2065     | 0.22253    | 0.23855    |   3.4 | 74.02
Neigh   | 2.5988e-05 | 2.9325e-05 | 3.2663e-05 |   0.0 |  0.01
Comm    | 0.01891    | 0.039487   | 0.060063   |  10.4 | 13.13
Output  | 2.0027e-05 | 2.3484e-05 | 2.6941e-05 |   0.0 |  0.01
Modify  | 0          | 0          | 0          |   0.0 |  0.00
Other   |            | 0.03856    |            |       | 12.83

Nlocal:    9 ave 10 max 8 min
Histogram: 1 0 0 0 0 0 0 0 0 1
Nghost:    9 ave 10 max 8 min
Histogram: 1 0 0 0 0 0 0 0 0 1
Neighs:    0 ave 0 max 0 min
Histogram: 2 0 0 0 0 0 0 0 0 0
FullNghs:  117 ave 134 max 100 min
Histogram: 1 0 0 0 0 0 0 0 0 1

Total # of neighbors = 234
Ave neighs/atom = 13
Neighbor list builds = 4
Dangerous builds = 0
WARNING: Using 'neigh_modify every 1 delay 0 check yes' setting during minimization (../min.cpp:168)
Setting up cg style minimization ...
  Unit style    : metal
  Current step  : 1001
Per MPI rank memory allocation (min/avg/max) = 4.045 | 4.233 | 4.42 Mbytes
Step Temp E_pair E_mol TotEng Press 
    1001            0     -77.9824            0     -77.9824   -1.0214318 
    1966            0   -77.983646            0   -77.983646  0.029546821 
Loop time of 0.24498 on 2 procs for 965 steps with 18 atoms

98.9% CPU use with 2 MPI tasks x no OpenMP threads

Minimization stats:
  Stopping criterion = force tolerance
  Energy initial, next-to-last, final = 
        -77.9824004211     -77.9836462181     -77.9836462183
  Force two-norm initial, final = 0.00832059 6.65104e-05
  Force max component initial, final = 0.00288124 2.70662e-05
  Final line search alpha, max atom move = 1 2.70662e-05
  Iterations, force evaluations = 965 2129

MPI task timing breakdown:
Section |  min time  |  avg time  |  max time  |%varavg| %total
---------------------------------------------------------------
Pair    | 0.16325    | 0.18373    | 0.20422    |   4.8 | 75.00
Neigh   | 0          | 0          | 0          |   0.0 |  0.00
Comm    | 0.0072501  | 0.030863   | 0.054476   |  13.4 | 12.60
Output  | 0          | 0          | 0          |   0.0 |  0.00
Modify  | 0          | 0          | 0          |   0.0 |  0.00
Other   |            | 0.03038    |            |       | 12.40

Nlocal:    9 ave 10 max 8 min
Histogram: 1 0 0 0 0 0 0 0 0 1
Nghost:    9 ave 10 max 8 min
Histogram: 1 0 0 0 0 0 0 0 0 1
Neighs:    0 ave 0 max 0 min
Histogram: 2 0 0 0 0 0 0 0 0 0
FullNghs:  117 ave 131 max 103 min
Histogram: 1 0 0 0 0 0 0 0 0 1

Total # of neighbors = 234
Ave neighs/atom = 13
Neighbor list builds = 0
Dangerous builds = 0
Total wall time: 0:00:00
