 146 146   0   0
  0.1397510E+02  0.8428300E-09  0.1459820E-08  0.1658321E-08  0.5000000E-15
  1.000000000000000E-004
  CAR 
 Al_Al2O3                                
     12.07108271    -20.24307789  301      6.81737577      1.00000000
    -20.243  0.0000E+00  0.0000E+00
    -20.135  0.0000E+00  0.0000E+00
    -20.028  0.0000E+00  0.0000E+00
    -19.920  0.0000E+00  0.0000E+00
    -19.812  0.0000E+00  0.0000E+00
    -19.705  0.0000E+00  0.0000E+00
    -19.597 -0.1770E-29 -0.1907E-30
    -19.489 -0.2394E-22 -0.2579E-23
    -19.381 -0.3109E-16 -0.3349E-17
    -19.274 -0.3690E-11 -0.3975E-12
    -19.166 -0.4163E-07 -0.4485E-08
    -19.058 -0.4117E-04 -0.4439E-05
    -18.951 -0.2910E-02 -0.3179E-03
    -18.843  0.1134E-01  0.9031E-03
    -18.735  0.1410E+00  0.1609E-01
    -18.627  0.4166E-01  0.2058E-01
    -18.520 -0.5216E-02  0.2002E-01
    -18.412 -0.1746E-03  0.2000E-01
    -18.304 -0.3510E-06  0.2000E-01
    -18.197 -0.6008E-10  0.2000E-01
    -18.089 -0.9276E-15  0.2000E-01
    -17.981  0.0000E+00  0.2000E-01
    -17.873  0.0000E+00  0.2000E-01
    -17.766  0.0000E+00  0.2000E-01
    -17.658  0.0000E+00  0.2000E-01
    -17.550  0.0000E+00  0.2000E-01
    -17.443  0.0000E+00  0.2000E-01
    -17.335  0.0000E+00  0.2000E-01
    -17.227  0.0000E+00  0.2000E-01
    -17.119  0.0000E+00  0.2000E-01
    -17.012  0.0000E+00  0.2000E-01
    -16.904  0.0000E+00  0.2000E-01
    -16.796  0.0000E+00  0.2000E-01
    -16.689  0.0000E+00  0.2000E-01
    -16.581  0.0000E+00  0.2000E-01
    -16.473  0.0000E+00  0.2000E-01
    -16.365  0.0000E+00  0.2000E-01
    -16.258 -0.1980E-30  0.2000E-01
    -16.150 -0.3266E-23  0.2000E-01
    -16.042 -0.5172E-17  0.2000E-01
    -15.935 -0.7505E-12  0.2000E-01
    -15.827 -0.1037E-07  0.2000E-01
    -15.719 -0.1265E-04  0.2000E-01
    -15.611 -0.1142E-02  0.1988E-01
    -15.504  0.2556E-02  0.2015E-01
    -15.396  0.6438E-01  0.2709E-01
    -15.288  0.4153E-01  0.3156E-01
    -15.181  0.1277E+00  0.4531E-01
    -15.073  0.1951E+00  0.6633E-01
    -14.965  0.1281E+00  0.8013E-01
    -14.857  0.1713E+00  0.9858E-01
    -14.750  0.1543E+00  0.1152E+00
    -14.642  0.4908E-01  0.1205E+00
    -14.534  0.1485E+00  0.1365E+00
    -14.427  0.2297E+00  0.1612E+00
    -14.319  0.3461E+00  0.1985E+00
    -14.211  0.2813E+00  0.2288E+00
    -14.103  0.2098E+00  0.2514E+00
    -13.996  0.1768E+00  0.2704E+00
    -13.888  0.3004E+00  0.3028E+00
    -13.780  0.3897E+00  0.3448E+00
    -13.673  0.7812E+00  0.4289E+00
    -13.565  0.5704E+00  0.4904E+00
    -13.457  0.4188E+00  0.5355E+00
    -13.349  0.5531E+00  0.5951E+00
    -13.242  0.5216E+00  0.6512E+00
    -13.134  0.2550E+00  0.6787E+00
    -13.026  0.1506E+00  0.6949E+00
    -12.919  0.2956E+00  0.7268E+00
    -12.811  0.1714E+00  0.7452E+00
    -12.703  0.3547E+00  0.7834E+00
    -12.595  0.3213E+00  0.8180E+00
    -12.488  0.2427E+00  0.8442E+00
    -12.380  0.1378E+00  0.8590E+00
    -12.272  0.1754E-01  0.8609E+00
    -12.165  0.2168E+00  0.8843E+00
    -12.057  0.1540E+00  0.9009E+00
    -11.949 -0.6461E-02  0.9002E+00
    -11.841 -0.5400E-02  0.8996E+00
    -11.734  0.2137E-01  0.9019E+00
    -11.626  0.1406E+00  0.9170E+00
    -11.518  0.5409E-01  0.9229E+00
    -11.411  0.1347E+00  0.9374E+00
    -11.303  0.8128E-01  0.9461E+00
    -11.195  0.1277E+00  0.9599E+00
    -11.087  0.3265E-02  0.9602E+00
    -10.980 -0.2064E-02  0.9600E+00
    -10.872 -0.2082E-04  0.9600E+00
    -10.764 -0.1573E-07  0.9600E+00
    -10.657 -0.1051E-11  0.9600E+00
    -10.549 -0.1503E-19  0.9600E+00
    -10.441 -0.6764E-14  0.9600E+00
    -10.333 -0.2925E-09  0.9600E+00
    -10.226 -0.1150E-05  0.9600E+00
    -10.118 -0.3764E-03  0.9600E+00
    -10.010 -0.6085E-02  0.9593E+00
     -9.903  0.6632E-01  0.9664E+00
     -9.795  0.1266E+00  0.9801E+00
     -9.687  0.1022E-02  0.9802E+00
     -9.579 -0.1784E-02  0.9800E+00
     -9.472 -0.1585E-04  0.9800E+00
     -9.364 -0.1071E-07  0.9800E+00
     -9.256 -0.6425E-12  0.9800E+00
     -9.149  0.0000E+00  0.9800E+00
     -9.041 -0.3071E-29  0.9800E+00
     -8.933 -0.3860E-22  0.9800E+00
     -8.825 -0.4655E-16  0.9800E+00
     -8.718 -0.5128E-11  0.9800E+00
     -8.610 -0.5365E-07  0.9800E+00
     -8.502 -0.4907E-04  0.9800E+00
     -8.395 -0.3161E-02  0.9797E+00
     -8.287  0.1397E-01  0.9812E+00
     -8.179  0.1426E+00  0.9965E+00
     -8.071  0.3739E-01  0.1001E+01
     -7.964 -0.4967E-02  0.1000E+01
     -7.856 -0.1495E-03  0.1000E+01
     -7.748 -0.2776E-06  0.1000E+01
     -7.641 -0.4405E-10  0.1000E+01
     -7.533 -0.6390E-15  0.1000E+01
     -7.425  0.0000E+00  0.1000E+01
     -7.317  0.0000E+00  0.1000E+01
     -7.210  0.0000E+00  0.1000E+01
     -7.102  0.0000E+00  0.1000E+01
     -6.994  0.0000E+00  0.1000E+01
     -6.887  0.0000E+00  0.1000E+01
     -6.779  0.0000E+00  0.1000E+01
     -6.671  0.0000E+00  0.1000E+01
     -6.563  0.0000E+00  0.1000E+01
     -6.456  0.0000E+00  0.1000E+01
     -6.348  0.0000E+00  0.1000E+01
     -6.240  0.0000E+00  0.1000E+01
     -6.133  0.0000E+00  0.1000E+01
     -6.025  0.0000E+00  0.1000E+01
     -5.917  0.0000E+00  0.1000E+01
     -5.809  0.0000E+00  0.1000E+01
     -5.702  0.0000E+00  0.1000E+01
     -5.594  0.0000E+00  0.1000E+01
     -5.486  0.0000E+00  0.1000E+01
     -5.379  0.0000E+00  0.1000E+01
     -5.271  0.0000E+00  0.1000E+01
     -5.163  0.0000E+00  0.1000E+01
     -5.055  0.0000E+00  0.1000E+01
     -4.948 -0.1556E-35  0.1000E+01
     -4.840 -0.1131E-27  0.1000E+01
     -4.732 -0.7925E-21  0.1000E+01
     -4.625 -0.5165E-15  0.1000E+01
     -4.517 -0.3234E-10  0.1000E+01
     -4.409 -0.1856E-06  0.1000E+01
     -4.301 -0.9060E-04  0.1000E+01
     -4.194 -0.2637E-02  0.9997E+00
     -4.086  0.2135E-01  0.1002E+01
     -3.978  0.7029E-01  0.1010E+01
     -3.871  0.5355E-02  0.1010E+01
     -3.763 -0.2747E-02  0.1010E+01
     -3.655 -0.4772E-03  0.1010E+01
     -3.547  0.9506E-01  0.1020E+01
     -3.440  0.1208E+00  0.1033E+01
     -3.332  0.1345E+00  0.1048E+01
     -3.224  0.2282E-01  0.1050E+01
     -3.117  0.4782E-02  0.1051E+01
     -3.009  0.2205E+00  0.1074E+01
     -2.901  0.5519E+00  0.1134E+01
     -2.793  0.4601E+00  0.1183E+01
     -2.686  0.3266E+00  0.1218E+01
     -2.578  0.1872E+00  0.1239E+01
     -2.470  0.6118E-01  0.1245E+01
     -2.363  0.3584E+00  0.1284E+01
     -2.255  0.5891E+00  0.1347E+01
     -2.147  0.5557E+00  0.1407E+01
     -2.039  0.4280E+00  0.1453E+01
     -1.932  0.5525E+00  0.1513E+01
     -1.824  0.3679E+00  0.1552E+01
     -1.716  0.2618E+00  0.1581E+01
     -1.609  0.4598E+00  0.1630E+01
     -1.501  0.5221E+00  0.1686E+01
     -1.393  0.4857E+00  0.1739E+01
     -1.285  0.5247E+00  0.1795E+01
     -1.178  0.5486E+00  0.1854E+01
     -1.070  0.5148E+00  0.1910E+01
     -0.962  0.5147E+00  0.1965E+01
     -0.855  0.5899E+00  0.2029E+01
     -0.747  0.4561E+00  0.2078E+01
     -0.639  0.3779E+00  0.2119E+01
     -0.531  0.3021E+00  0.2151E+01
     -0.424  0.4167E+00  0.2196E+01
     -0.316  0.4317E+00  0.2242E+01
     -0.208  0.5614E+00  0.2303E+01
     -0.101  0.5649E+00  0.2364E+01
      0.007  0.5684E+00  0.2425E+01
      0.115  0.5009E+00  0.2479E+01
      0.223  0.6276E+00  0.2547E+01
      0.330  0.5235E+00  0.2603E+01
      0.438  0.5488E+00  0.2662E+01
      0.546  0.6132E+00  0.2728E+01
      0.653  0.6877E+00  0.2802E+01
      0.761  0.8162E+00  0.2890E+01
      0.869  0.7194E+00  0.2968E+01
      0.977  0.6952E+00  0.3042E+01
      1.084  0.7237E+00  0.3120E+01
      1.192  0.7276E+00  0.3199E+01
      1.300  0.7449E+00  0.3279E+01
      1.407  0.8523E+00  0.3371E+01
      1.515  0.7527E+00  0.3452E+01
      1.623  0.6868E+00  0.3526E+01
      1.731  0.6548E+00  0.3596E+01
      1.838  0.7221E+00  0.3674E+01
      1.946  0.6514E+00  0.3744E+01
      2.054  0.6444E+00  0.3814E+01
      2.161  0.6945E+00  0.3889E+01
      2.269  0.6823E+00  0.3962E+01
      2.377  0.6403E+00  0.4031E+01
      2.485  0.6862E+00  0.4105E+01
      2.592  0.6587E+00  0.4176E+01
      2.700  0.6552E+00  0.4246E+01
      2.808  0.5829E+00  0.4309E+01
      2.915  0.6286E+00  0.4377E+01
      3.023  0.5476E+00  0.4436E+01
      3.131  0.6159E+00  0.4502E+01
      3.239  0.6905E+00  0.4577E+01
      3.346  0.6991E+00  0.4652E+01
      3.454  0.4572E+00  0.4701E+01
      3.562  0.3611E+00  0.4740E+01
      3.669  0.3715E+00  0.4780E+01
      3.777  0.2115E+00  0.4803E+01
      3.885  0.3390E+00  0.4839E+01
      3.993  0.6471E+00  0.4909E+01
      4.100  0.5277E+00  0.4966E+01
      4.208  0.2629E+00  0.4994E+01
      4.316  0.3600E+00  0.5033E+01
      4.423  0.3626E+00  0.5072E+01
      4.531  0.4532E+00  0.5121E+01
      4.639  0.2473E+00  0.5148E+01
      4.747  0.2913E+00  0.5179E+01
      4.854  0.4278E+00  0.5225E+01
      4.962  0.2987E+00  0.5257E+01
      5.070  0.3227E+00  0.5292E+01
      5.177  0.2953E+00  0.5324E+01
      5.285  0.3131E+00  0.5357E+01
      5.393  0.2518E+00  0.5385E+01
      5.501  0.3618E+00  0.5424E+01
      5.608  0.3025E+00  0.5456E+01
      5.716  0.2851E+00  0.5487E+01
      5.824  0.2703E+00  0.5516E+01
      5.931  0.3331E+00  0.5552E+01
      6.039  0.3891E+00  0.5594E+01
      6.147  0.2742E+00  0.5623E+01
      6.255  0.4176E+00  0.5668E+01
      6.362  0.3620E+00  0.5707E+01
      6.470  0.2860E+00  0.5738E+01
      6.578  0.4665E+00  0.5788E+01
      6.685  0.3274E+00  0.5824E+01
      6.793  0.4260E+00  0.5869E+01
      6.901  0.4036E+00  0.5913E+01
      7.009  0.2710E+00  0.5942E+01
      7.116  0.3359E+00  0.5978E+01
      7.224  0.5266E+00  0.6035E+01
      7.332  0.3961E+00  0.6078E+01
      7.439  0.3259E+00  0.6113E+01
      7.547  0.1836E+00  0.6133E+01
      7.655  0.2299E+00  0.6157E+01
      7.763  0.3532E+00  0.6195E+01
      7.870  0.3420E+00  0.6232E+01
      7.978  0.3342E+00  0.6268E+01
      8.086  0.3896E+00  0.6310E+01
      8.193  0.3721E+00  0.6350E+01
      8.301  0.3602E+00  0.6389E+01
      8.409  0.5186E+00  0.6445E+01
      8.517  0.4394E+00  0.6492E+01
      8.624  0.4206E+00  0.6538E+01
      8.732  0.3690E+00  0.6577E+01
      8.840  0.4365E+00  0.6624E+01
      8.947  0.2801E+00  0.6655E+01
      9.055  0.3130E+00  0.6688E+01
      9.163  0.4483E+00  0.6736E+01
      9.271  0.3812E+00  0.6778E+01
      9.378  0.4270E+00  0.6824E+01
      9.486  0.4324E+00  0.6870E+01
      9.594  0.3403E+00  0.6907E+01
      9.701  0.2573E+00  0.6934E+01
      9.809  0.3700E+00  0.6974E+01
      9.917  0.4943E+00  0.7028E+01
     10.025  0.5332E+00  0.7085E+01
     10.132  0.5647E+00  0.7146E+01
     10.240  0.5413E+00  0.7204E+01
     10.348  0.5519E+00  0.7264E+01
     10.455  0.4598E+00  0.7313E+01
     10.563  0.2877E+00  0.7344E+01
     10.671  0.1518E+00  0.7360E+01
     10.779 -0.2172E-02  0.7360E+01
     10.886 -0.2130E-02  0.7360E+01
     10.994 -0.2352E-04  0.7360E+01
     11.102 -0.2193E-07  0.7360E+01
     11.209 -0.1888E-11  0.7360E+01
     11.317 -0.2061E-16  0.7360E+01
     11.425  0.0000E+00  0.7360E+01
     11.533  0.0000E+00  0.7360E+01
     11.640  0.0000E+00  0.7360E+01
     11.748  0.0000E+00  0.7360E+01
     11.856  0.0000E+00  0.7360E+01
     11.963  0.0000E+00  0.7360E+01
     12.071  0.0000E+00  0.7360E+01
