       N       E                     dE             d eps       ncg     rms          rms(c)
DAV:   1     0.265986179706E+04    0.26599E+04   -0.22250E+05  1472   0.113E+03
DAV:   2    -0.466258597137E+03   -0.31261E+04   -0.29428E+04  1920   0.244E+02
DAV:   3    -0.834624278654E+03   -0.36837E+03   -0.36383E+03  1696   0.907E+01
DAV:   4    -0.843851757623E+03   -0.92275E+01   -0.91664E+01  1728   0.148E+01
DAV:   5    -0.844113560006E+03   -0.26180E+00   -0.26155E+00  1880   0.232E+00    0.549E+01
RMM:   6    -0.776926578564E+03    0.67187E+02   -0.41420E+02  1490   0.259E+01    0.468E+01
RMM:   7    -0.780026278453E+03   -0.30997E+01   -0.10753E+02  1518   0.113E+01    0.252E+01
RMM:   8    -0.759996947081E+03    0.20029E+02   -0.80513E+00  1488   0.291E+00    0.179E+01
RMM:   9    -0.754404445181E+03    0.55925E+01   -0.70955E+00  1481   0.254E+00    0.976E+00
RMM:  10    -0.755304542782E+03   -0.90010E+00   -0.72339E+00  1482   0.240E+00    0.203E+01
RMM:  11    -0.754305384878E+03    0.99916E+00   -0.24102E+00  1483   0.148E+00    0.171E+01
RMM:  12    -0.752414145746E+03    0.18912E+01   -0.24797E+00  1480   0.148E+00    0.481E+00
RMM:  13    -0.752250309342E+03    0.16384E+00   -0.83875E-01  1489   0.910E-01    0.348E+00
RMM:  14    -0.752166781642E+03    0.83528E-01   -0.25300E-01  1472   0.496E-01    0.264E+00
RMM:  15    -0.752124130980E+03    0.42651E-01   -0.60277E-02  1436   0.255E-01    0.204E+00
RMM:  16    -0.752104633936E+03    0.19497E-01   -0.28474E-02  1275   0.168E-01    0.158E+00
RMM:  17    -0.752086430605E+03    0.18203E-01   -0.26483E-02  1287   0.159E-01    0.997E-01
RMM:  18    -0.752083753114E+03    0.26775E-02   -0.52648E-03  1051   0.829E-02    0.534E-01
RMM:  19    -0.752083261967E+03    0.49115E-03   -0.39407E-03  1004   0.663E-02
   1 F= -.75208326E+03 E0= -.75207767E+03  d E =-.752083E+03
       N       E                     dE             d eps       ncg     rms          rms(c)
DAV:   1    -0.729488019828E+03    0.22596E+02   -0.32820E+03  1736   0.808E+01    0.123E+01
RMM:   2    -0.766504296145E+03   -0.37016E+02   -0.36737E+02  1648   0.224E+01    0.156E+01
RMM:   3    -0.758290127641E+03    0.82142E+01   -0.19283E+01  1600   0.416E+00    0.168E+01
RMM:   4    -0.756741160418E+03    0.15490E+01   -0.16426E+00  1575   0.122E+00    0.126E+01
RMM:   5    -0.755405138462E+03    0.13360E+01   -0.79791E-01  1495   0.830E-01    0.101E+01
RMM:   6    -0.754625814971E+03    0.77932E+00   -0.23371E+00  1482   0.131E+00    0.114E+01
RMM:   7    -0.754466951084E+03    0.15886E+00   -0.11402E+00  1489   0.116E+00    0.113E+01
RMM:   8    -0.753877689841E+03    0.58926E+00   -0.46235E-01  1442   0.622E-01    0.448E+00
RMM:   9    -0.754052310017E+03   -0.17462E+00   -0.60386E-01  1480   0.775E-01    0.602E+00
RMM:  10    -0.753817710865E+03    0.23460E+00   -0.25655E-01  1429   0.500E-01    0.226E+00
RMM:  11    -0.753911689515E+03   -0.93979E-01   -0.10710E-01  1413   0.377E-01    0.318E+00
RMM:  12    -0.753915416695E+03   -0.37272E-02   -0.12575E-01  1389   0.289E-01    0.409E+00
RMM:  13    -0.753856508350E+03    0.58908E-01   -0.19755E-02  1227   0.215E-01    0.186E+00
RMM:  14    -0.753850879898E+03    0.56285E-02   -0.20925E-02  1082   0.127E-01    0.758E-01
RMM:  15    -0.753854230949E+03   -0.33511E-02   -0.37685E-03  1027   0.947E-02    0.539E-01
RMM:  16    -0.753859251046E+03   -0.50201E-02   -0.34076E-03   908   0.551E-02    0.103E+00
RMM:  17    -0.753852764493E+03    0.64866E-02   -0.12486E-03   800   0.362E-02    0.285E-01
RMM:  18    -0.753853513701E+03   -0.74921E-03   -0.48980E-04   693   0.302E-02
   2 F= -.75385351E+03 E0= -.75385278E+03  d E =-.177025E+01
       N       E                     dE             d eps       ncg     rms          rms(c)
DAV:   1    -0.753891737895E+03   -0.38973E-01   -0.52016E+00  1552   0.268E+00    0.482E-01
RMM:   2    -0.753914395771E+03   -0.22658E-01   -0.13025E-01  1360   0.340E-01    0.144E+00
RMM:   3    -0.753899194200E+03    0.15202E-01   -0.12196E-02  1078   0.115E-01    0.375E-01
RMM:   4    -0.753902115184E+03   -0.29210E-02   -0.28803E-03   959   0.687E-02    0.577E-01
RMM:   5    -0.753900252543E+03    0.18626E-02   -0.88203E-04   746   0.379E-02    0.190E-01
RMM:   6    -0.753900415212E+03   -0.16267E-03   -0.42321E-04   652   0.276E-02
   3 F= -.75390042E+03 E0= -.75390022E+03  d E =-.181715E+01
       N       E                     dE             d eps       ncg     rms          rms(c)
DAV:   1    -0.726122738784E+03    0.27778E+02   -0.38610E+03  1584   0.983E+01    0.237E+01
RMM:   2    -0.765842611479E+03   -0.39720E+02   -0.58225E+02  2069   0.248E+01    0.186E+01
RMM:   3    -0.778296497160E+03   -0.12454E+02   -0.14371E+02  2192   0.114E+01    0.222E+01
RMM:   4    -0.774671543700E+03    0.36250E+01   -0.26569E+01  1618   0.447E+00    0.197E+01
RMM:   5    -0.768446688294E+03    0.62249E+01   -0.56920E+00  1485   0.216E+00    0.158E+01
RMM:   6    -0.766533444416E+03    0.19132E+01   -0.19824E+00  1486   0.122E+00    0.117E+01
RMM:   7    -0.765895317639E+03    0.63813E+00   -0.35225E+00  1481   0.162E+00    0.152E+01
RMM:   8    -0.764466571993E+03    0.14287E+01   -0.52262E-01  1482   0.761E-01    0.645E+00
RMM:   9    -0.764927372365E+03   -0.46080E+00   -0.13503E+00  1471   0.990E-01    0.765E+00
RMM:  10    -0.764825466376E+03    0.10191E+00   -0.57455E-01  1483   0.821E-01    0.788E+00
RMM:  11    -0.764652634321E+03    0.17283E+00   -0.35503E-01  1448   0.602E-01    0.877E+00
RMM:  12    -0.764249103243E+03    0.40353E+00   -0.25333E-01  1402   0.456E-01    0.253E+00
RMM:  13    -0.764301736093E+03   -0.52633E-01   -0.15898E-01  1395   0.361E-01    0.275E+00
RMM:  14    -0.764283814725E+03    0.17921E-01   -0.21428E-02  1327   0.210E-01    0.154E+00
RMM:  15    -0.764280137271E+03    0.36775E-02   -0.59873E-03  1117   0.915E-02    0.104E+00
RMM:  16    -0.764282088988E+03   -0.19517E-02   -0.15035E-02  1045   0.101E-01    0.103E+00
RMM:  17    -0.764278283053E+03    0.38059E-02   -0.13252E-03   875   0.800E-02    0.685E-01
RMM:  18    -0.764277181568E+03    0.11015E-02   -0.50057E-04   707   0.273E-02    0.265E-01
RMM:  19    -0.764278182939E+03   -0.10014E-02   -0.48796E-04   701   0.316E-02    0.854E-02
RMM:  20    -0.764278438485E+03   -0.25555E-03   -0.13881E-04   451   0.174E-02
   4 F= -.76427844E+03 E0= -.76427091E+03  d E =-.103780E+02
       N       E                     dE             d eps       ncg     rms          rms(c)
DAV:   1    -0.755557116681E+03    0.87211E+01   -0.14729E+03  1496   0.591E+01    0.137E+01
RMM:   2    -0.773727824961E+03   -0.18171E+02   -0.17528E+02  1523   0.135E+01    0.165E+01
RMM:   3    -0.766493064023E+03    0.72348E+01   -0.77914E+00  1484   0.280E+00    0.116E+01
RMM:   4    -0.765766554178E+03    0.72651E+00   -0.12238E+00  1487   0.108E+00    0.877E+00
RMM:   5    -0.765159616809E+03    0.60694E+00   -0.96552E-01  1487   0.981E-01    0.554E+00
RMM:   6    -0.765067078376E+03    0.92538E-01   -0.32231E-01  1446   0.613E-01    0.493E+00
RMM:   7    -0.764998816406E+03    0.68262E-01   -0.35545E-01  1481   0.644E-01    0.457E+00
RMM:   8    -0.764929980033E+03    0.68836E-01   -0.11273E-01  1414   0.332E-01    0.325E+00
RMM:   9    -0.764975132851E+03   -0.45153E-01   -0.15261E-01  1421   0.394E-01    0.417E+00
RMM:  10    -0.764908613132E+03    0.66520E-01   -0.64578E-02  1300   0.248E-01    0.174E+00
RMM:  11    -0.764904877705E+03    0.37354E-02   -0.14580E-02  1200   0.163E-01    0.114E+00
RMM:  12    -0.764898230660E+03    0.66470E-02   -0.61032E-03  1038   0.797E-02    0.307E-01
RMM:  13    -0.764900420590E+03   -0.21899E-02   -0.14865E-03   843   0.556E-02    0.335E-01
RMM:  14    -0.764899954660E+03    0.46593E-03   -0.54035E-04   710   0.272E-02
   5 F= -.76489995E+03 E0= -.76489295E+03  d E =-.109995E+02
       N       E                     dE             d eps       ncg     rms          rms(c)
DAV:   1    -0.764515311864E+03    0.38511E+00   -0.29386E+02  1488   0.281E+01    0.337E+00
RMM:   2    -0.765751527497E+03   -0.12362E+01   -0.11253E+01  1486   0.396E+00    0.765E+00
RMM:   3    -0.765479902833E+03    0.27162E+00   -0.58211E-01  1459   0.756E-01    0.418E+00
RMM:   4    -0.765430722898E+03    0.49180E-01   -0.18581E-01  1438   0.485E-01    0.451E+00
RMM:   5    -0.765344774005E+03    0.85949E-01   -0.76803E-02  1393   0.288E-01    0.218E+00
RMM:   6    -0.765351145155E+03   -0.63712E-02   -0.54135E-02  1355   0.241E-01    0.235E+00
RMM:   7    -0.765341555742E+03    0.95894E-02   -0.38861E-02  1304   0.192E-01    0.232E+00
RMM:   8    -0.765326390413E+03    0.15165E-01   -0.28966E-02  1222   0.185E-01    0.117E+00
RMM:   9    -0.765325058308E+03    0.13321E-02   -0.13324E-02  1175   0.136E-01    0.661E-01
RMM:  10    -0.765323430339E+03    0.16280E-02   -0.60132E-03   991   0.834E-02    0.237E-01
RMM:  11    -0.765323636612E+03   -0.20627E-03   -0.85586E-04   755   0.448E-02
   6 F= -.76532364E+03 E0= -.76531555E+03  d E =-.114232E+02
       N       E                     dE             d eps       ncg     rms          rms(c)
DAV:   1    -0.762073339770E+03    0.32501E+01   -0.94345E+02  1504   0.468E+01    0.106E+01
RMM:   2    -0.772761023304E+03   -0.10688E+02   -0.10968E+02  1677   0.104E+01    0.165E+01
RMM:   3    -0.770605156729E+03    0.21559E+01   -0.78580E+00  1495   0.265E+00    0.121E+01
RMM:   4    -0.768305939978E+03    0.22992E+01   -0.16114E+00  1464   0.129E+00    0.616E+00
RMM:   5    -0.768006150826E+03    0.29979E+00   -0.46782E-01  1424   0.596E-01    0.454E+00
RMM:   6    -0.767865736292E+03    0.14041E+00   -0.66172E-01  1435   0.692E-01    0.472E+00
RMM:   7    -0.767762923160E+03    0.10281E+00   -0.18583E-01  1414   0.407E-01    0.204E+00
RMM:   8    -0.767777485716E+03   -0.14563E-01   -0.74495E-02  1335   0.246E-01    0.252E+00
RMM:   9    -0.767778055560E+03   -0.56984E-03   -0.67718E-02  1369   0.258E-01    0.221E+00
RMM:  10    -0.767765132218E+03    0.12923E-01   -0.39463E-02  1360   0.208E-01    0.177E+00
RMM:  11    -0.767742368334E+03    0.22764E-01   -0.33332E-02  1258   0.164E-01    0.603E-01
RMM:  12    -0.767742973549E+03   -0.60521E-03   -0.42555E-03   994   0.798E-02
   7 F= -.76774297E+03 E0= -.76773812E+03  d E =-.241934E+01
       N       E                     dE             d eps       ncg     rms          rms(c)
DAV:   1    -0.767869207324E+03   -0.12684E+00   -0.34780E+01  1520   0.901E+00    0.112E+00
RMM:   2    -0.768061497826E+03   -0.19229E+00   -0.10786E+00  1418   0.113E+00    0.461E+00
RMM:   3    -0.767945809257E+03    0.11569E+00   -0.70527E-02  1333   0.272E-01    0.116E+00
RMM:   4    -0.767961689430E+03   -0.15880E-01   -0.21349E-02  1155   0.168E-01    0.124E+00
RMM:   5    -0.767951996158E+03    0.96933E-02   -0.70924E-03  1008   0.860E-02    0.521E-01
RMM:   6    -0.767951992225E+03    0.39333E-05   -0.33035E-03   935   0.618E-02
   8 F= -.76795199E+03 E0= -.76794720E+03  d E =-.262836E+01
       N       E                     dE             d eps       ncg     rms          rms(c)
DAV:   1    -0.768003761403E+03   -0.51765E-01   -0.13552E+02  1496   0.177E+01    0.223E+00
RMM:   2    -0.768735294597E+03   -0.73153E+00   -0.52139E+00  1444   0.234E+00    0.676E+00
RMM:   3    -0.768464254905E+03    0.27104E+00   -0.28752E-01  1424   0.505E-01    0.252E+00
RMM:   4    -0.768450001133E+03    0.14254E-01   -0.78518E-02  1337   0.306E-01    0.165E+00
RMM:   5    -0.768436937026E+03    0.13064E-01   -0.24120E-02  1165   0.143E-01    0.116E+00
RMM:   6    -0.768430544577E+03    0.63924E-02   -0.12959E-02  1139   0.117E-01    0.721E-01
RMM:   7    -0.768430634136E+03   -0.89559E-04   -0.10131E-02  1069   0.924E-02    0.773E-01
RMM:   8    -0.768427921009E+03    0.27131E-02   -0.66239E-03  1080   0.891E-02    0.315E-01
RMM:   9    -0.768427579016E+03    0.34199E-03   -0.22683E-03   892   0.543E-02
   9 F= -.76842758E+03 E0= -.76842324E+03  d E =-.310394E+01
       N       E                     dE             d eps       ncg     rms          rms(c)
DAV:   1    -0.766828409427E+03    0.15995E+01   -0.50567E+02  1488   0.336E+01    0.485E+00
RMM:   2    -0.770350925548E+03   -0.35225E+01   -0.33389E+01  1478   0.570E+00    0.956E+00
RMM:   3    -0.769972010232E+03    0.37892E+00   -0.17617E+00  1470   0.113E+00    0.561E+00
RMM:   4    -0.769578252266E+03    0.39376E+00   -0.38841E-01  1430   0.653E-01    0.296E+00
RMM:   5    -0.769528688985E+03    0.49563E-01   -0.13418E-01  1375   0.305E-01    0.241E+00
RMM:   6    -0.769501961301E+03    0.26728E-01   -0.87559E-02  1366   0.269E-01    0.235E+00
RMM:   7    -0.769485668112E+03    0.16293E-01   -0.25258E-02  1184   0.166E-01    0.144E+00
RMM:   8    -0.769477547234E+03    0.81209E-02   -0.29884E-02  1309   0.179E-01    0.816E-01
RMM:   9    -0.769478747391E+03   -0.12002E-02   -0.12346E-02  1161   0.118E-01    0.770E-01
RMM:  10    -0.769476083291E+03    0.26641E-02   -0.48576E-03   997   0.709E-02    0.532E-01
RMM:  11    -0.769474445981E+03    0.16373E-02   -0.16784E-03   811   0.400E-02    0.136E-01
RMM:  12    -0.769474697217E+03   -0.25124E-03   -0.82678E-04   717   0.312E-02
  10 F= -.76947470E+03 E0= -.76946978E+03  d E =-.415106E+01
       N       E                     dE             d eps       ncg     rms          rms(c)
DAV:   1    -0.757908629778E+03    0.11566E+02   -0.15336E+03  1560   0.575E+01    0.105E+01
RMM:   2    -0.774427466657E+03   -0.16519E+02   -0.18261E+02  1787   0.136E+01    0.127E+01
RMM:   3    -0.773569811500E+03    0.85766E+00   -0.10891E+01  1518   0.292E+00    0.110E+01
RMM:   4    -0.771702612617E+03    0.18672E+01   -0.15044E+00  1487   0.134E+00    0.719E+00
RMM:   5    -0.771313844624E+03    0.38877E+00   -0.56899E-01  1441   0.731E-01    0.565E+00
RMM:   6    -0.771325970992E+03   -0.12126E-01   -0.10753E+00  1450   0.101E+00    0.105E+01
RMM:   7    -0.771047808316E+03    0.27816E+00   -0.37439E-01  1431   0.639E-01    0.859E+00
RMM:   8    -0.770808962328E+03    0.23885E+00   -0.42787E-01  1450   0.646E-01    0.207E+00
RMM:   9    -0.770847860602E+03   -0.38898E-01   -0.91961E-02  1387   0.374E-01    0.169E+00
RMM:  10    -0.770866677882E+03   -0.18817E-01   -0.10384E-01  1379   0.315E-01    0.185E+00
RMM:  11    -0.770825897515E+03    0.40780E-01   -0.30975E-02  1339   0.191E-01    0.101E+00
RMM:  12    -0.770820258384E+03    0.56391E-02   -0.14458E-02  1213   0.118E-01    0.702E-01
RMM:  13    -0.770818529994E+03    0.17284E-02   -0.11517E-03   815   0.373E-02    0.548E-01
RMM:  14    -0.770817274868E+03    0.12551E-02   -0.87675E-04   764   0.294E-02    0.393E-01
RMM:  15    -0.770816388642E+03    0.88623E-03   -0.75197E-04   721   0.239E-02
  11 F= -.77081639E+03 E0= -.77081126E+03  d E =-.549275E+01
       N       E                     dE             d eps       ncg     rms          rms(c)
DAV:   1    -0.762913472204E+03    0.79038E+01   -0.16911E+03  1488   0.663E+01    0.103E+01
RMM:   2    -0.776162484483E+03   -0.13249E+02   -0.14503E+02  1489   0.132E+01    0.835E+00
RMM:   3    -0.774478335597E+03    0.16841E+01   -0.44434E+00  1519   0.208E+00    0.669E+00
RMM:   4    -0.774164693669E+03    0.31364E+00   -0.54570E-01  1490   0.824E-01    0.509E+00
RMM:   5    -0.773846912177E+03    0.31778E+00   -0.95768E-01  1482   0.109E+00    0.253E+00
RMM:   6    -0.773809503596E+03    0.37409E-01   -0.26234E-01  1461   0.542E-01    0.201E+00
RMM:   7    -0.773765873898E+03    0.43630E-01   -0.83453E-02  1413   0.308E-01    0.959E-01
RMM:   8    -0.773762028515E+03    0.38454E-02   -0.56821E-02  1399   0.252E-01    0.712E-01
RMM:   9    -0.773754715283E+03    0.73132E-02   -0.13710E-02  1306   0.134E-01    0.303E-01
RMM:  10    -0.773753796497E+03    0.91879E-03   -0.56763E-03  1138   0.819E-02
  12 F= -.77375380E+03 E0= -.77375197E+03  d E =-.293741E+01
       N       E                     dE             d eps       ncg     rms          rms(c)
DAV:   1    -0.773753950241E+03    0.76504E-03   -0.70595E-03  1424   0.151E-01    0.101E-01
RMM:   2    -0.773754006724E+03   -0.56483E-04   -0.96907E-04   749   0.366E-02
  13 F= -.77375401E+03 E0= -.77375213E+03  d E =-.293762E+01
       N       E                     dE             d eps       ncg     rms          rms(c)
DAV:   1    -0.774426623769E+03   -0.67267E+00   -0.39193E+02  1488   0.320E+01    0.445E+00
RMM:   2    -0.776464089929E+03   -0.20375E+01   -0.21390E+01  1483   0.493E+00    0.425E+00
RMM:   3    -0.776166455808E+03    0.29763E+00   -0.62619E-01  1480   0.830E-01    0.338E+00
RMM:   4    -0.776041210028E+03    0.12525E+00   -0.13611E-01  1439   0.410E-01    0.173E+00
RMM:   5    -0.776014034454E+03    0.27176E-01   -0.71702E-02  1436   0.316E-01    0.111E+00
RMM:   6    -0.776000133589E+03    0.13901E-01   -0.41153E-02  1400   0.230E-01    0.667E-01
RMM:   7    -0.775997498233E+03    0.26354E-02   -0.24733E-02  1315   0.157E-01    0.483E-01
RMM:   8    -0.775994797479E+03    0.27008E-02   -0.67981E-03  1049   0.817E-02    0.117E-01
RMM:   9    -0.775994839868E+03   -0.42389E-04   -0.55058E-04   783   0.315E-02
  14 F= -.77599484E+03 E0= -.77599390E+03  d E =-.224083E+01
       N       E                     dE             d eps       ncg     rms          rms(c)
DAV:   1    -0.756126949075E+03    0.19868E+02   -0.25023E+03  1504   0.790E+01    0.160E+01
RMM:   2    -0.782547899958E+03   -0.26421E+02   -0.32777E+02  1821   0.200E+01    0.125E+01
RMM:   3    -0.779137853933E+03    0.34100E+01   -0.16251E+01  1599   0.388E+00    0.113E+01
RMM:   4    -0.777863736953E+03    0.12741E+01   -0.15568E+00  1538   0.133E+00    0.896E+00
RMM:   5    -0.776807655295E+03    0.10561E+01   -0.24670E+00  1493   0.159E+00    0.557E+00
RMM:   6    -0.776570776482E+03    0.23688E+00   -0.33086E+00  1486   0.177E+00    0.293E+00
RMM:   7    -0.776431572809E+03    0.13920E+00   -0.20616E-01  1483   0.545E-01    0.156E+00
RMM:   8    -0.776437032221E+03   -0.54594E-02   -0.59328E-01  1449   0.744E-01    0.133E+00
RMM:   9    -0.776409866574E+03    0.27166E-01   -0.30315E-02  1369   0.192E-01    0.848E-01
RMM:  10    -0.776398512256E+03    0.11354E-01   -0.85083E-02  1337   0.273E-01    0.180E-01
RMM:  11    -0.776398678010E+03   -0.16575E-03   -0.28532E-03  1003   0.601E-02
  15 F= -.77639868E+03 E0= -.77639835E+03  d E =-.264467E+01
       N       E                     dE             d eps       ncg     rms          rms(c)
DAV:   1    -0.771011281109E+03    0.53872E+01   -0.10920E+03  1488   0.529E+01    0.931E+00
RMM:   2    -0.779286696706E+03   -0.82754E+01   -0.94452E+01  1491   0.988E+00    0.697E+00
RMM:   3    -0.778158178721E+03    0.11285E+01   -0.27543E+00  1536   0.166E+00    0.499E+00
RMM:   4    -0.777986260755E+03    0.17192E+00   -0.66970E-01  1505   0.869E-01    0.427E+00
RMM:   5    -0.777805356463E+03    0.18090E+00   -0.11375E+00  1482   0.104E+00    0.183E+00
RMM:   6    -0.777755893174E+03    0.49463E-01   -0.80640E-02  1418   0.317E-01    0.103E+00
RMM:   7    -0.777773373654E+03   -0.17480E-01   -0.22869E-01  1410   0.446E-01    0.113E+00
RMM:   8    -0.777757688554E+03    0.15685E-01   -0.22417E-02  1332   0.161E-01    0.775E-01
RMM:   9    -0.777748076367E+03    0.96122E-02   -0.43765E-02  1284   0.189E-01    0.127E-01
RMM:  10    -0.777748608088E+03   -0.53172E-03   -0.51227E-03  1091   0.671E-02
  16 F= -.77774861E+03 E0= -.77774823E+03  d E =-.399460E+01
       N       E                     dE             d eps       ncg     rms          rms(c)
DAV:   1    -0.777446986397E+03    0.30109E+00   -0.15712E+02  1480   0.205E+01    0.247E+00
RMM:   2    -0.778043879878E+03   -0.59689E+00   -0.65905E+00  1495   0.289E+00    0.178E+00
RMM:   3    -0.777954134812E+03    0.89745E-01   -0.15436E-01  1521   0.440E-01    0.108E+00
RMM:   4    -0.777947213345E+03    0.69215E-02   -0.37530E-02  1432   0.220E-01    0.943E-01
RMM:   5    -0.777937978872E+03    0.92345E-02   -0.28924E-02  1371   0.191E-01    0.820E-01
RMM:   6    -0.777931769978E+03    0.62089E-02   -0.11860E-02  1300   0.122E-01    0.267E-01
RMM:   7    -0.777931286871E+03    0.48311E-03   -0.33784E-03  1043   0.683E-02
  17 F= -.77793129E+03 E0= -.77793071E+03  d E =-.417728E+01
       N       E                     dE             d eps       ncg     rms          rms(c)
DAV:   1    -0.777909792282E+03    0.21978E-01   -0.25619E+02  1496   0.250E+01    0.336E+00
RMM:   2    -0.779128711981E+03   -0.12189E+01   -0.13272E+01  1505   0.370E+00    0.249E+00
RMM:   3    -0.778987319537E+03    0.14139E+00   -0.30328E-01  1510   0.581E-01    0.169E+00
RMM:   4    -0.778978249328E+03    0.90702E-02   -0.77311E-02  1404   0.304E-01    0.173E+00
RMM:   5    -0.778944594650E+03    0.33655E-01   -0.85183E-02  1432   0.337E-01    0.482E-01
RMM:   6    -0.778942227516E+03    0.23671E-02   -0.12305E-02  1280   0.115E-01    0.278E-01
RMM:   7    -0.778941735452E+03    0.49206E-03   -0.94456E-03  1238   0.931E-02
  18 F= -.77894174E+03 E0= -.77894225E+03  d E =-.101045E+01
       N       E                     dE             d eps       ncg     rms          rms(c)
DAV:   1    -0.778860839609E+03    0.81388E-01   -0.66793E+01  1528   0.131E+01    0.160E+00
RMM:   2    -0.779097171372E+03   -0.23633E+00   -0.25451E+00  1516   0.174E+00    0.104E+00
RMM:   3    -0.779068736630E+03    0.28435E-01   -0.69023E-02  1450   0.292E-01    0.946E-01
RMM:   4    -0.779061630344E+03    0.71063E-02   -0.15518E-02  1325   0.134E-01    0.653E-01
RMM:   5    -0.779056071408E+03    0.55589E-02   -0.10893E-02  1307   0.130E-01    0.210E-01
RMM:   6    -0.779055972247E+03    0.99161E-04   -0.34083E-03  1030   0.677E-02
  19 F= -.77905597E+03 E0= -.77905737E+03  d E =-.112469E+01
       N       E                     dE             d eps       ncg     rms          rms(c)
DAV:   1    -0.779383677290E+03   -0.32761E+00   -0.23370E+02  1488   0.247E+01    0.335E+00
RMM:   2    -0.780486913602E+03   -0.11032E+01   -0.11924E+01  1508   0.370E+00    0.253E+00
RMM:   3    -0.780361626441E+03    0.12529E+00   -0.28627E-01  1489   0.599E-01    0.203E+00
RMM:   4    -0.780336123883E+03    0.25503E-01   -0.66093E-02  1418   0.285E-01    0.163E+00
RMM:   5    -0.780304757022E+03    0.31367E-01   -0.88277E-02  1431   0.361E-01    0.505E-01
RMM:   6    -0.780302635710E+03    0.21213E-02   -0.13372E-02  1321   0.126E-01    0.279E-01
RMM:   7    -0.780301653753E+03    0.98196E-03   -0.46178E-03  1114   0.765E-02
  20 F= -.78030165E+03 E0= -.78030257E+03  d E =-.124568E+01
       N       E                     dE             d eps       ncg     rms          rms(c)
DAV:   1    -0.780310073120E+03   -0.74374E-02   -0.70756E+00  1568   0.433E+00    0.549E-01
RMM:   2    -0.780333434401E+03   -0.23361E-01   -0.25421E-01  1488   0.603E-01    0.337E-01
RMM:   3    -0.780329467237E+03    0.39672E-02   -0.64172E-03  1196   0.979E-02    0.246E-01
RMM:   4    -0.780329545999E+03   -0.78762E-04   -0.18196E-03   902   0.522E-02
  21 F= -.78032955E+03 E0= -.78032997E+03  d E =-.127357E+01
       N       E                     dE             d eps       ncg     rms          rms(c)
DAV:   1    -0.780739028120E+03   -0.40956E+00   -0.56224E+01  1488   0.124E+01    0.152E+00
RMM:   2    -0.780940027965E+03   -0.20100E+00   -0.22074E+00  1531   0.172E+00    0.939E-01
RMM:   3    -0.780907128759E+03    0.32899E-01   -0.49070E-02  1428   0.260E-01    0.596E-01
RMM:   4    -0.780904919633E+03    0.22091E-02   -0.16093E-02  1361   0.151E-01    0.620E-01
RMM:   5    -0.780901816453E+03    0.31032E-02   -0.89663E-03  1250   0.105E-01    0.404E-01
RMM:   6    -0.780899844079E+03    0.19724E-02   -0.20449E-03   930   0.531E-02    0.120E-01
RMM:   7    -0.780899643634E+03    0.20045E-03   -0.76716E-04   771   0.364E-02
  22 F= -.78089964E+03 E0= -.78089939E+03  d E =-.570098E+00
       N       E                     dE             d eps       ncg     rms          rms(c)
DAV:   1    -0.780541878596E+03    0.35797E+00   -0.16867E+02  1480   0.214E+01    0.269E+00
RMM:   2    -0.781233131824E+03   -0.69125E+00   -0.75216E+00  1516   0.301E+00    0.171E+00
RMM:   3    -0.781144049543E+03    0.89082E-01   -0.16249E-01  1495   0.452E-01    0.109E+00
RMM:   4    -0.781145443752E+03   -0.13942E-02   -0.55722E-02  1415   0.266E-01    0.134E+00
RMM:   5    -0.781121668455E+03    0.23775E-01   -0.31150E-02  1381   0.204E-01    0.332E-01
RMM:   6    -0.781121056267E+03    0.61219E-03   -0.62451E-03  1197   0.889E-02
  23 F= -.78112106E+03 E0= -.78111875E+03  d E =-.791510E+00
       N       E                     dE             d eps       ncg     rms          rms(c)
DAV:   1    -0.781184679977E+03   -0.63012E-01   -0.64154E+01  1488   0.135E+01    0.142E+00
RMM:   2    -0.781387758067E+03   -0.20308E+00   -0.21621E+00  1518   0.174E+00    0.791E-01
RMM:   3    -0.781358652672E+03    0.29105E-01   -0.43057E-02  1426   0.239E-01    0.595E-01
RMM:   4    -0.781356616648E+03    0.20360E-02   -0.85635E-03  1240   0.995E-02    0.583E-01
RMM:   5    -0.781352070607E+03    0.45460E-02   -0.86060E-03  1266   0.113E-01    0.223E-01
RMM:   6    -0.781351317759E+03    0.75285E-03   -0.21770E-03   915   0.576E-02
  24 F= -.78135132E+03 E0= -.78134978E+03  d E =-.230261E+00
       N       E                     dE             d eps       ncg     rms          rms(c)
DAV:   1    -0.780753161823E+03    0.59891E+00   -0.24025E+02  1480   0.260E+01    0.286E+00
RMM:   2    -0.781621045270E+03   -0.86788E+00   -0.92784E+00  1516   0.357E+00    0.172E+00
RMM:   3    -0.781490338430E+03    0.13071E+00   -0.18325E-01  1499   0.493E-01    0.111E+00
RMM:   4    -0.781487740494E+03    0.25979E-02   -0.47570E-02  1427   0.244E-01    0.124E+00
RMM:   5    -0.781465099834E+03    0.22641E-01   -0.39975E-02  1399   0.234E-01    0.442E-01
RMM:   6    -0.781462855949E+03    0.22439E-02   -0.69367E-03  1184   0.926E-02    0.221E-01
RMM:   7    -0.781462488842E+03    0.36711E-03   -0.38295E-03  1067   0.688E-02
  25 F= -.78146249E+03 E0= -.78146223E+03  d E =-.341433E+00
       N       E                     dE             d eps       ncg     rms          rms(c)
DAV:   1    -0.781429969317E+03    0.32887E-01   -0.23553E+01  1520   0.809E+00    0.838E-01
RMM:   2    -0.781498745554E+03   -0.68776E-01   -0.74226E-01  1517   0.104E+00    0.418E-01
RMM:   3    -0.781487088734E+03    0.11657E-01   -0.14424E-02  1322   0.140E-01    0.273E-01
RMM:   4    -0.781485633246E+03    0.14555E-02   -0.54923E-03  1182   0.928E-02    0.202E-01
RMM:   5    -0.781485102801E+03    0.53044E-03   -0.16025E-03   852   0.499E-02
  26 F= -.78148510E+03 E0= -.78148443E+03  d E =-.364047E+00
       N       E                     dE             d eps       ncg     rms          rms(c)
DAV:   1    -0.781647537251E+03   -0.16190E+00   -0.43798E+01  1480   0.109E+01    0.114E+00
RMM:   2    -0.781781512509E+03   -0.13398E+00   -0.14393E+00  1521   0.149E+00    0.710E-01
RMM:   3    -0.781756064233E+03    0.25448E-01   -0.33770E-02  1442   0.219E-01    0.427E-01
RMM:   4    -0.781753460901E+03    0.26033E-02   -0.13408E-02  1367   0.144E-01    0.328E-01
RMM:   5    -0.781752706581E+03    0.75432E-03   -0.31408E-03   964   0.629E-02
  27 F= -.78175271E+03 E0= -.78175385E+03  d E =-.267604E+00
       N       E                     dE             d eps       ncg     rms          rms(c)
DAV:   1    -0.781735563016E+03    0.17898E-01   -0.36127E+01  1472   0.100E+01    0.105E+00
RMM:   2    -0.781844664081E+03   -0.10910E+00   -0.11611E+00  1532   0.135E+00    0.739E-01
RMM:   3    -0.781826365807E+03    0.18298E-01   -0.30849E-02  1433   0.207E-01    0.693E-01
RMM:   4    -0.781821732418E+03    0.46334E-02   -0.75541E-03  1205   0.998E-02    0.447E-01
RMM:   5    -0.781819933072E+03    0.17993E-02   -0.68657E-03  1275   0.103E-01    0.223E-01
RMM:   6    -0.781818984868E+03    0.94820E-03   -0.17273E-03   885   0.523E-02
  28 F= -.78181898E+03 E0= -.78182111E+03  d E =-.333882E+00
       N       E                     dE             d eps       ncg     rms          rms(c)
DAV:   1    -0.781815950164E+03    0.39829E-02   -0.83461E+01  1488   0.152E+01    0.160E+00
RMM:   2    -0.782078966728E+03   -0.26302E+00   -0.28220E+00  1534   0.202E+00    0.879E-01
RMM:   3    -0.782039024242E+03    0.39942E-01   -0.61718E-02  1488   0.283E-01    0.615E-01
RMM:   4    -0.782039038283E+03   -0.14041E-04   -0.15472E-02  1352   0.136E-01    0.772E-01
RMM:   5    -0.782031171949E+03    0.78663E-02   -0.11465E-02  1322   0.128E-01    0.171E-01
RMM:   6    -0.782031133579E+03    0.38370E-04   -0.16584E-03   893   0.511E-02
  29 F= -.78203113E+03 E0= -.78203400E+03  d E =-.212149E+00
       N       E                     dE             d eps       ncg     rms          rms(c)
DAV:   1    -0.781622871308E+03    0.40830E+00   -0.16266E+02  1480   0.214E+01    0.233E+00
RMM:   2    -0.782198668695E+03   -0.57580E+00   -0.61743E+00  1532   0.302E+00    0.139E+00
RMM:   3    -0.782113868358E+03    0.84800E-01   -0.13601E-01  1508   0.421E-01    0.899E-01
RMM:   4    -0.782116233341E+03   -0.23650E-02   -0.41777E-02  1420   0.229E-01    0.122E+00
RMM:   5    -0.782096645833E+03    0.19588E-01   -0.25551E-02  1384   0.186E-01    0.272E-01
RMM:   6    -0.782096913504E+03   -0.26767E-03   -0.52848E-03  1152   0.853E-02
  30 F= -.78209691E+03 E0= -.78210049E+03  d E =-.277929E+00
       N       E                     dE             d eps       ncg     rms          rms(c)
DAV:   1    -0.782079132471E+03    0.17513E-01   -0.13969E+01  1536   0.634E+00    0.658E-01
RMM:   2    -0.782119206501E+03   -0.40074E-01   -0.43543E-01  1509   0.813E-01    0.327E-01
RMM:   3    -0.782112383059E+03    0.68234E-02   -0.91299E-03  1243   0.111E-01    0.253E-01
RMM:   4    -0.782111797152E+03    0.58591E-03   -0.16665E-03   895   0.492E-02
  31 F= -.78211180E+03 E0= -.78211559E+03  d E =-.292812E+00
       N       E                     dE             d eps       ncg     rms          rms(c)
DAV:   1    -0.782242088857E+03   -0.12971E+00   -0.39489E+01  1496   0.105E+01    0.110E+00
RMM:   2    -0.782353788915E+03   -0.11170E+00   -0.12116E+00  1531   0.139E+00    0.639E-01
RMM:   3    -0.782336749918E+03    0.17039E-01   -0.29743E-02  1438   0.202E-01    0.528E-01
RMM:   4    -0.782335397957E+03    0.13520E-02   -0.73101E-03  1151   0.932E-02    0.462E-01
RMM:   5    -0.782333402569E+03    0.19954E-02   -0.46576E-03  1127   0.835E-02    0.159E-01
RMM:   6    -0.782332793090E+03    0.60948E-03   -0.11066E-03   838   0.426E-02
  32 F= -.78233279E+03 E0= -.78233606E+03  d E =-.220996E+00
       N       E                     dE             d eps       ncg     rms          rms(c)
DAV:   1    -0.781462157640E+03    0.87124E+00   -0.28967E+02  1488   0.280E+01    0.311E+00
RMM:   2    -0.782653195491E+03   -0.11910E+01   -0.12850E+01  1520   0.448E+00    0.222E+00
RMM:   3    -0.782500600609E+03    0.15259E+00   -0.28658E-01  1521   0.618E-01    0.143E+00
RMM:   4    -0.782501556099E+03   -0.95549E-03   -0.15561E-01  1465   0.450E-01    0.165E+00
RMM:   5    -0.782473666227E+03    0.27890E-01   -0.63188E-02  1422   0.285E-01    0.538E-01
RMM:   6    -0.782470860223E+03    0.28060E-02   -0.12489E-02  1316   0.127E-01    0.267E-01
RMM:   7    -0.782472723141E+03   -0.18629E-02   -0.18975E-02  1335   0.148E-01    0.284E-01
RMM:   8    -0.782471284904E+03    0.14382E-02   -0.23808E-03   921   0.600E-02    0.136E-01
RMM:   9    -0.782471366950E+03   -0.82046E-04   -0.42463E-03  1046   0.722E-02
  33 F= -.78247137E+03 E0= -.78247063E+03  d E =-.359570E+00
       N       E                     dE             d eps       ncg     rms          rms(c)
DAV:   1    -0.782427437147E+03    0.43848E-01   -0.38774E+01  1488   0.103E+01    0.112E+00
RMM:   2    -0.782536570959E+03   -0.10913E+00   -0.12270E+00  1511   0.137E+00    0.719E-01
RMM:   3    -0.782518592327E+03    0.17979E-01   -0.28118E-02  1422   0.202E-01    0.439E-01
RMM:   4    -0.782517162033E+03    0.14303E-02   -0.10437E-02  1320   0.124E-01    0.378E-01
RMM:   5    -0.782515877591E+03    0.12844E-02   -0.52612E-03  1109   0.864E-02    0.253E-01
RMM:   6    -0.782515258766E+03    0.61883E-03   -0.10502E-03   857   0.391E-02
  34 F= -.78251526E+03 E0= -.78251623E+03  d E =-.403462E+00
       N       E                     dE             d eps       ncg     rms          rms(c)
DAV:   1    -0.782651224402E+03   -0.13535E+00   -0.11815E+01  1528   0.568E+00    0.621E-01
RMM:   2    -0.782683831260E+03   -0.32607E-01   -0.36308E-01  1487   0.745E-01    0.371E-01
RMM:   3    -0.782678175000E+03    0.56563E-02   -0.83442E-03  1209   0.108E-01    0.230E-01
RMM:   4    -0.782678533394E+03   -0.35839E-03   -0.38689E-03  1028   0.767E-02
  35 F= -.78267853E+03 E0= -.78267871E+03  d E =-.163275E+00
       N       E                     dE             d eps       ncg     rms          rms(c)
DAV:   1    -0.782440229749E+03    0.23795E+00   -0.10503E+02  1504   0.169E+01    0.190E+00
RMM:   2    -0.782803681418E+03   -0.36345E+00   -0.39462E+00  1516   0.244E+00    0.126E+00
RMM:   3    -0.782753713069E+03    0.49968E-01   -0.91565E-02  1482   0.348E-01    0.851E-01
RMM:   4    -0.782760033132E+03   -0.63201E-02   -0.40423E-02  1409   0.229E-01    0.111E+00
RMM:   5    -0.782746829410E+03    0.13204E-01   -0.30578E-02  1379   0.212E-01    0.267E-01
RMM:   6    -0.782746989816E+03   -0.16041E-03   -0.50664E-03  1110   0.811E-02
  36 F= -.78274699E+03 E0= -.78274316E+03  d E =-.231731E+00
       N       E                     dE             d eps       ncg     rms          rms(c)
DAV:   1    -0.782748089233E+03   -0.12598E-02   -0.23467E+01  1504   0.799E+00    0.925E-01
RMM:   2    -0.782829083813E+03   -0.80995E-01   -0.89476E-01  1503   0.113E+00    0.698E-01
RMM:   3    -0.782814355383E+03    0.14728E-01   -0.20559E-02  1374   0.170E-01    0.436E-01
RMM:   4    -0.782813828383E+03    0.52700E-03   -0.11859E-02  1320   0.129E-01    0.393E-01
RMM:   5    -0.782811607457E+03    0.22209E-02   -0.41029E-03  1031   0.747E-02    0.201E-01
RMM:   6    -0.782811277750E+03    0.32971E-03   -0.89198E-04   820   0.368E-02
  37 F= -.78281128E+03 E0= -.78280915E+03  d E =-.296019E+00
       N       E                     dE             d eps       ncg     rms          rms(c)
DAV:   1    -0.782938234594E+03   -0.12663E+00   -0.25897E+00  1512   0.274E+00    0.355E-01
RMM:   2    -0.782948340535E+03   -0.10106E-01   -0.11671E-01  1497   0.440E-01    0.261E-01
RMM:   3    -0.782946193603E+03    0.21469E-02   -0.28585E-03   985   0.684E-02    0.168E-01
RMM:   4    -0.782946055175E+03    0.13843E-03   -0.13763E-03   839   0.500E-02
  38 F= -.78294606E+03 E0= -.78294372E+03  d E =-.134777E+00
       N       E                     dE             d eps       ncg     rms          rms(c)
DAV:   1    -0.783004807140E+03   -0.58614E-01   -0.20324E+01  1496   0.770E+00    0.103E+00
RMM:   2    -0.783089308152E+03   -0.84501E-01   -0.94673E-01  1556   0.127E+00    0.862E-01
RMM:   3    -0.783074428052E+03    0.14880E-01   -0.27980E-02  1420   0.198E-01    0.763E-01
RMM:   4    -0.783069892188E+03    0.45359E-02   -0.78762E-03  1234   0.104E-01    0.541E-01
RMM:   5    -0.783067973317E+03    0.19189E-02   -0.11796E-02  1333   0.136E-01    0.256E-01
RMM:   6    -0.783067110905E+03    0.86241E-03   -0.24062E-03   948   0.604E-02
  39 F= -.78306711E+03 E0= -.78306383E+03  d E =-.255833E+00
       N       E                     dE             d eps       ncg     rms          rms(c)
DAV:   1    -0.783074171347E+03   -0.61980E-02   -0.11247E+00  1528   0.181E+00    0.229E-01
RMM:   2    -0.783078341705E+03   -0.41704E-02   -0.49326E-02  1477   0.286E-01    0.172E-01
RMM:   3    -0.783077339772E+03    0.10019E-02   -0.11004E-03   828   0.450E-02    0.117E-01
RMM:   4    -0.783077247799E+03    0.91973E-04   -0.51118E-04   713   0.306E-02
  40 F= -.78307725E+03 E0= -.78307409E+03  d E =-.265970E+00
       N       E                     dE             d eps       ncg     rms          rms(c)
DAV:   1    -0.783095073522E+03   -0.17734E-01   -0.69406E-01  1496   0.142E+00    0.203E-01
RMM:   2    -0.783098344449E+03   -0.32709E-02   -0.25809E-02  1444   0.205E-01    0.347E-01
RMM:   3    -0.783096852963E+03    0.14915E-02   -0.16158E-03   847   0.463E-02    0.128E-01
RMM:   4    -0.783096713422E+03    0.13954E-03   -0.25168E-04   699   0.245E-02
  41 F= -.78309671E+03 E0= -.78309373E+03  d E =-.194656E-01
       N       E                     dE             d eps       ncg     rms          rms(c)
DAV:   1    -0.783111515285E+03   -0.14662E-01   -0.61858E+00  1480   0.425E+00    0.498E-01
RMM:   2    -0.783130139415E+03   -0.18624E-01   -0.20946E-01  1516   0.588E-01    0.326E-01
RMM:   3    -0.783127710432E+03    0.24290E-02   -0.55768E-03  1125   0.915E-02    0.344E-01
RMM:   4    -0.783126658492E+03    0.10519E-02   -0.15329E-03   877   0.484E-02    0.199E-01
RMM:   5    -0.783126274114E+03    0.38438E-03   -0.15928E-03   827   0.570E-02
  42 F= -.78312627E+03 E0= -.78312358E+03  d E =-.490263E-01
       N       E                     dE             d eps       ncg     rms          rms(c)
DAV:   1    -0.783143453086E+03   -0.16795E-01   -0.10572E+00  1528   0.173E+00    0.201E-01
RMM:   2    -0.783146325554E+03   -0.28725E-02   -0.31012E-02  1431   0.227E-01    0.118E-01
RMM:   3    -0.783146009552E+03    0.31600E-03   -0.76742E-04   823   0.374E-02
  43 F= -.78314601E+03 E0= -.78314328E+03  d E =-.197354E-01
       N       E                     dE             d eps       ncg     rms          rms(c)
DAV:   1    -0.783149766767E+03   -0.34412E-02   -0.95588E+00  1504   0.522E+00    0.598E-01
RMM:   2    -0.783175835828E+03   -0.26069E-01   -0.28240E-01  1514   0.679E-01    0.358E-01
RMM:   3    -0.783171840912E+03    0.39949E-02   -0.69935E-03  1214   0.104E-01    0.244E-01
RMM:   4    -0.783171698254E+03    0.14266E-03   -0.21913E-03   922   0.602E-02
  44 F= -.78317170E+03 E0= -.78316914E+03  d E =-.454241E-01
       N       E                     dE             d eps       ncg     rms          rms(c)
DAV:   1    -0.783184126803E+03   -0.12286E-01   -0.15721E+00  1560   0.204E+00    0.333E-01
RMM:   2    -0.783195254564E+03   -0.11128E-01   -0.48604E-02  1463   0.266E-01    0.853E-01
RMM:   3    -0.783186851807E+03    0.84028E-02   -0.59744E-03  1055   0.820E-02    0.175E-01
RMM:   4    -0.783187010059E+03   -0.15825E-03   -0.70288E-04   779   0.412E-02
  45 F= -.78318701E+03 E0= -.78318453E+03  d E =-.153118E-01
       N       E                     dE             d eps       ncg     rms          rms(c)
DAV:   1    -0.783185058423E+03    0.17934E-02   -0.57441E+00  1520   0.390E+00    0.455E-01
RMM:   2    -0.783199632967E+03   -0.14575E-01   -0.15901E-01  1487   0.484E-01    0.339E-01
RMM:   3    -0.783198491418E+03    0.11415E-02   -0.62864E-03  1117   0.890E-02    0.418E-01
RMM:   4    -0.783197039111E+03    0.14523E-02   -0.15728E-03   886   0.487E-02    0.160E-01
RMM:   5    -0.783197107580E+03   -0.68469E-04   -0.75952E-04   810   0.372E-02
  46 F= -.78319711E+03 E0= -.78319447E+03  d E =-.254093E-01
       N       E                     dE             d eps       ncg     rms          rms(c)
DAV:   1    -0.783197728227E+03   -0.68912E-03   -0.32355E+00  1520   0.299E+00    0.321E-01
RMM:   2    -0.783206209374E+03   -0.84811E-02   -0.91471E-02  1472   0.362E-01    0.149E-01
RMM:   3    -0.783204956747E+03    0.12526E-02   -0.16616E-03   876   0.511E-02    0.133E-01
RMM:   4    -0.783204915005E+03    0.41743E-04   -0.44861E-04   731   0.274E-02
  47 F= -.78320492E+03 E0= -.78320201E+03  d E =-.780742E-02
       N       E                     dE             d eps       ncg     rms          rms(c)
DAV:   1    -0.783202979993E+03    0.19768E-02   -0.13821E+00  1560   0.195E+00    0.202E-01
RMM:   2    -0.783206460470E+03   -0.34805E-02   -0.36574E-02  1426   0.230E-01    0.134E-01
RMM:   3    -0.783206112924E+03    0.34755E-03   -0.10365E-03   827   0.383E-02
  48 F= -.78320611E+03 E0= -.78320354E+03  d E =-.900534E-02
