 vasp.5.4.1 05Feb16 (build Feb 01 2017 11:31:40) complex                        
  
 executed on           IFC91_ompi date 2021.07.07  11:34:28
 running on   32 total cores
 distrk:  each k-point on   32 cores,    1 groups
 distr:  one band on NCORES_PER_BAND=   4 cores,    8 groups


--------------------------------------------------------------------------------------------------------


 INCAR:
 POTCAR:    PAW_PBE Al 04Jan2001                  
 POTCAR:    PAW_PBE O 08Apr2002                   
 POTCAR:    PAW_PBE Al 04Jan2001                  
   VRHFIN =Al: s2p1                                                             
   LEXCH  = PE                                                                  
   EATOM  =    53.5387 eV,    3.9350 Ry                                         
                                                                                
   TITEL  = PAW_PBE Al 04Jan2001                                                
   LULTRA =        F    use ultrasoft PP ?                                      
   IUNSCR =        1    unscreen: 0-lin 1-nonlin 2-no                           
   RPACOR =    1.500    partial core radius                                     
   POMASS =   26.981; ZVAL   =    3.000    mass and valenz                      
   RCORE  =    1.900    outmost cutoff radius                                   
   RWIGS  =    2.650; RWIGS  =    1.402    wigner-seitz radius (au A)           
   ENMAX  =  240.300; ENMIN  =  180.225 eV                                      
   ICORE  =        2    local potential                                         
   LCOR   =        T    correct aug charges                                     
   LPAW   =        T    paw PP                                                  
   EAUG   =  291.052                                                            
   DEXC   =    0.000                                                            
   RMAX   =    1.939    core radius for proj-oper                               
   RAUG   =    1.300    factor for augmentation sphere                          
   RDEP   =    1.966    radius for radial grids                                 
   RDEPT  =    1.856    core radius for aug-charge                              
                                                                                
   Atomic configuration                                                         
    6 entries                                                                   
     n  l   j            E        occ.                                          
     1  0  0.50     -1511.1048   2.0000                                         
     2  0  0.50      -108.1629   2.0000                                         
     2  1  1.50       -69.6402   6.0000                                         
     3  0  0.50        -7.7528   2.0000                                         
     3  1  1.50        -2.7121   1.0000                                         
     3  2  2.50        -2.7212   0.0000                                         
   Description                                                                  
     l       E           TYP  RCUT    TYP  RCUT                                 
     0     -7.7528455     23  1.900                                             
     0     -3.3096929     23  1.900                                             
     1     -2.7120682     23  1.900                                             
     1     13.6058260     23  1.900                                             
     2     -2.7211652      7  1.900                                             
  local pseudopotential read in
  partial core-charges read in
  partial kinetic energy density read in
  atomic valenz-charges read in
  non local Contribution for L=           0  read in
    real space projection operators read in
  non local Contribution for L=           0  read in
    real space projection operators read in
  non local Contribution for L=           1  read in
    real space projection operators read in
  non local Contribution for L=           1  read in
    real space projection operators read in
    PAW grid and wavefunctions read in
 
   number of l-projection  operators is LMAX  =           4
   number of lm-projection operators is LMMAX =           8
 
 POTCAR:    PAW_PBE O 08Apr2002                   
   VRHFIN =O: s2p4                                                              
   LEXCH  = PE                                                                  
   EATOM  =   432.3788 eV,   31.7789 Ry                                         
                                                                                
   TITEL  = PAW_PBE O 08Apr2002                                                 
   LULTRA =        F    use ultrasoft PP ?                                      
   IUNSCR =        1    unscreen: 0-lin 1-nonlin 2-no                           
   RPACOR =    1.200    partial core radius                                     
   POMASS =   16.000; ZVAL   =    6.000    mass and valenz                      
   RCORE  =    1.520    outmost cutoff radius                                   
   RWIGS  =    1.550; RWIGS  =    0.820    wigner-seitz radius (au A)           
   ENMAX  =  400.000; ENMIN  =  300.000 eV                                      
   ICORE  =        2    local potential                                         
   LCOR   =        T    correct aug charges                                     
   LPAW   =        T    paw PP                                                  
   EAUG   =  605.392                                                            
   DEXC   =    0.000                                                            
   RMAX   =    1.553    core radius for proj-oper                               
   RAUG   =    1.300    factor for augmentation sphere                          
   RDEP   =    1.550    radius for radial grids                                 
   RDEPT  =    1.329    core radius for aug-charge                              
                                                                                
   Atomic configuration                                                         
    4 entries                                                                   
     n  l   j            E        occ.                                          
     1  0  0.50      -514.6923   2.0000                                         
     2  0  0.50       -23.9615   2.0000                                         
     2  1  0.50        -9.0305   4.0000                                         
     3  2  1.50        -9.5241   0.0000                                         
   Description                                                                  
     l       E           TYP  RCUT    TYP  RCUT                                 
     0    -23.9615318     23  1.200                                             
     0     -9.5240782     23  1.200                                             
     1     -9.0304911     23  1.520                                             
     1      8.1634956     23  1.520                                             
     2     -9.5240782      7  1.500                                             
  local pseudopotential read in
  partial core-charges read in
  partial kinetic energy density read in
  kinetic energy density of atom read in
  atomic valenz-charges read in
  non local Contribution for L=           0  read in
    real space projection operators read in
  non local Contribution for L=           0  read in
    real space projection operators read in
  non local Contribution for L=           1  read in
    real space projection operators read in
  non local Contribution for L=           1  read in
    real space projection operators read in
    PAW grid and wavefunctions read in
 
   number of l-projection  operators is LMAX  =           4
   number of lm-projection operators is LMMAX =           8
 
 Optimization of the real space projectors (new method)

 maximal supplied QI-value         = 19.84
 optimisation between [QCUT,QGAM] = [ 10.12, 20.44] = [ 28.68,116.96] Ry 
 Optimized for a Real-space Cutoff    1.38 Angstroem

   l    n(q)    QCUT    max X(q) W(low)/X(q) W(high)/X(q)  e(spline) 
   0      8    10.119   176.870    0.39E-04    0.93E-04    0.54E-07
   0      8    10.119   105.762    0.37E-04    0.91E-04    0.53E-07
   1      8    10.119    55.370    0.18E-03    0.13E-03    0.19E-06
   1      8    10.119    20.208    0.17E-03    0.12E-03    0.18E-06
 Optimization of the real space projectors (new method)

 maximal supplied QI-value         = 24.76
 optimisation between [QCUT,QGAM] = [ 10.15, 20.30] = [ 28.85,115.39] Ry 
 Optimized for a Real-space Cutoff    1.51 Angstroem

   l    n(q)    QCUT    max X(q) W(low)/X(q) W(high)/X(q)  e(spline) 
   0      9    10.150    20.381    0.17E-03    0.18E-03    0.41E-06
   0      9    10.150    15.268    0.18E-03    0.20E-03    0.43E-06
   1      9    10.150     5.964    0.16E-03    0.20E-03    0.36E-06
   1      9    10.150     5.382    0.13E-03    0.16E-03    0.33E-06
  PAW_PBE Al 04Jan2001                  :
 energy of atom  1       EATOM=  -53.5387
 kinetic energy error for atom=    0.0005 (will be added to EATOM!!)
  PAW_PBE O 08Apr2002                   :
 energy of atom  2       EATOM= -432.3788
 kinetic energy error for atom=    0.1156 (will be added to EATOM!!)
 
 
 POSCAR: Al96 O50                                
  positions in direct lattice
  No initial velocities read in
 exchange correlation table for  LEXCH =        8
   RHO(1)=    0.500       N(1)  =     2000
   RHO(2)=  100.500       N(2)  =     4000
 


--------------------------------------------------------------------------------------------------------


 ion  position               nearest neighbor table
   1  0.833  0.678  0.789-   2 2.81   4 2.81   3 2.81   5 2.81  94 2.81  93 2.81  51 2.84  68 2.84
                            58 2.84  74 2.84  80 2.84  57 2.84
   2  0.000  0.844  0.790-   1 2.81   3 2.81   4 2.81   6 2.81  85 2.81  86 2.81  65 2.84  47 2.84
                            80 2.84  73 2.84  66 2.84  51 2.84
   3  0.167  0.678  0.789-   2 2.81   6 2.81   1 2.81   5 2.81  94 2.81  96 2.81  51 2.84  59 2.84
                            68 2.84  81 2.84  73 2.84  56 2.84
   4  0.667  0.844  0.790-   1 2.81   5 2.81   2 2.81   6 2.81  85 2.81  84 2.81  65 2.84  64 2.84
                            80 2.84  67 2.84  72 2.84  58 2.84
   5  0.500  0.678  0.789-   6 2.81   4 2.81   1 2.81   3 2.81  96 2.81  93 2.81  59 2.84  58 2.84
                            81 2.84  74 2.84  67 2.84  63 2.84
   6  0.333  0.844  0.790-   5 2.81   3 2.81   4 2.81   2 2.81  84 2.81  86 2.81  64 2.84  47 2.84
                            67 2.84  73 2.84  79 2.84  59 2.84
   7  0.680  0.833  0.087-  97 1.89  98 1.89  99 1.89  45 2.85  40 2.85  44 2.85  80 2.97  67 3.08
                            72 3.13  10 3.28   8 3.28  17 3.28
   8  0.014  0.833  0.189- 100 1.89  98 1.89 113 1.89 137 2.00 138 2.00 139 2.00  32 2.29  38 2.85
                            37 2.85  36 2.85   9 3.28   7 3.28  16 3.28
   9  0.180  0.000  0.087- 101 1.89 100 1.89 102 1.89  40 2.85  45 2.85  41 2.85  79 2.96  66 3.07
                            78 3.18   8 3.28  14 3.28  10 3.28
  10  0.514  0.000  0.189- 102 1.89 105 1.89  97 1.89 128 2.00 129 2.00 130 2.00  27 2.29  37 2.85
                            25 2.85  38 2.85   7 3.28  11 3.28   9 3.28
  11  0.680  0.167  0.087- 103 1.89 104 1.89 105 1.89  43 2.85  41 2.85  45 2.85  87 3.01  71 3.12
                            77 3.17  13 3.28  14 3.28  10 3.28
  12  0.180  0.333  0.087- 106 1.89 107 1.89 108 1.89  43 2.85  41 2.85  42 2.85  83 3.00  70 3.11
                            75 3.16  14 3.28  18 3.28  13 3.28
  13  0.514  0.333  0.189- 108 1.89 103 1.89 111 1.89 121 2.00 122 2.00 123 2.00  23 2.29  25 2.85
                            22 2.85  20 2.85  11 3.28  15 3.28  12 3.28
  14  0.014  0.167  0.189- 106 1.89 104 1.89 101 1.89 115 2.00 116 2.00 117 2.00  19 2.29  20 2.85
                            38 2.85  25 2.85  12 3.28   9 3.28  11 3.28
  15  0.680  0.500  0.087- 109 1.89 110 1.89 111 1.89  42 2.85  44 2.85  43 2.85  82 2.99  69 3.10
                            74 3.15  17 3.28  18 3.28  13 3.28
  16  0.180  0.667  0.087- 112 1.89 113 1.89 114 1.89  44 2.85  42 2.85  40 2.85  81 2.98  68 3.09
                            73 3.14  18 3.28  17 3.28   8 3.28
  17  0.514  0.667  0.189- 114 1.89 109 1.89  99 1.89 118 2.00 119 2.00 120 2.00  21 2.29  22 2.85
                            36 2.85  37 2.85  15 3.28  16 3.28   7 3.28
  18  0.014  0.500  0.189- 112 1.89 110 1.89 107 1.89 125 2.00 126 2.00 127 2.00  26 2.29  20 2.85
                            36 2.85  22 2.85  16 3.28  12 3.28  15 3.28
  19  0.014  0.167  0.327- 115 1.77 116 1.77 117 1.77 144 2.14  14 2.29  39 2.85  48 2.85  24 2.85
                            20 3.34  38 3.34  25 3.34
  20  0.847  0.333  0.218- 115 1.89 125 1.89 123 1.89 106 2.00 110 2.00 103 2.00  39 2.29  43 2.67
                            14 2.85  18 2.85  13 2.85  19 3.34  26 3.34  23 3.34
  21  0.514  0.667  0.327- 118 1.77 119 1.77 120 1.77  17 2.29  30 2.85  35 2.85  33 2.85  22 3.34
                            36 3.34  37 3.34
  22  0.347  0.500  0.218- 118 1.89 122 1.89 126 1.89 114 2.00 111 2.00 107 2.00  30 2.29  42 2.67
                            17 2.85  13 2.85  18 2.85  21 3.34  23 3.34  26 3.34
  23  0.514  0.333  0.327- 121 1.77 122 1.77 123 1.77 124 1.89 145 1.92 142 1.93  13 2.29  24 2.85
                            30 2.85  39 2.85  25 3.34  22 3.34  20 3.34
  24  0.347  0.167  0.356- 124 1.84 144 1.90 131 1.97 121 2.23 129 2.23 116 2.23  25 2.29  23 2.85
                            27 2.85  19 2.85
  25  0.347  0.167  0.218- 121 1.89 129 1.89 116 1.89 108 2.00 105 2.00 101 2.00  24 2.29  41 2.67
                            13 2.85  10 2.85  14 2.85  23 3.34  27 3.34  19 3.34
  26  0.014  0.500  0.327- 125 1.77 126 1.77 127 1.77 132 2.11  18 2.29 146 2.39  39 2.85  35 2.85
                            30 2.85  20 3.34  36 3.34  22 3.34
  27  0.514  0.000  0.327- 128 1.77 129 1.77 130 1.77 131 1.90  10 2.29  33 2.85  24 2.85  48 2.85
                            37 3.34  25 3.34  38 3.34
  28  0.667  0.178  0.537-  50 2.43  60 2.45  61 2.45  29 2.80  49 2.93
  29  0.840  0.339  0.514-  39 2.61  60 2.69  62 2.75  34 2.78  28 2.80  54 2.81
  30  0.347  0.500  0.356- 132 1.82 142 1.87 118 2.23 122 2.23 126 2.23  22 2.29  21 2.85  23 2.85
                            26 2.85
  31  0.007  0.839  0.455- 134 1.51 136 1.62 133 1.81 140 2.03  32 2.12 135 2.44  49 2.97  48 3.16
                            46 3.19  35 3.28  33 3.30
  32  0.014  0.833  0.327- 137 1.77 138 1.77 139 1.77 140 1.83 136 1.84 134 1.95  31 2.12   8 2.29
                            48 2.85  33 2.85  35 2.85  38 3.34  37 3.34  36 3.34
  33  0.347  0.833  0.356- 140 1.83 135 2.21 137 2.23 128 2.23 119 2.23  37 2.29  27 2.85  32 2.85
                            21 2.85  31 3.30
  34  0.167  0.344  0.537- 143 1.28  55 2.43  62 2.45  53 2.45  29 2.78
  35  0.847  0.667  0.356- 136 1.86 146 1.95 139 2.23 127 2.23 120 2.23  36 2.29  26 2.85  21 2.85
                            32 2.85  31 3.28
  36  0.847  0.667  0.218- 139 1.89 127 1.89 120 1.89 112 2.00 109 2.00  98 2.00  35 2.29  44 2.67
                            18 2.85  17 2.85   8 2.85  26 3.34  21 3.34  32 3.34
  37  0.347  0.833  0.218- 137 1.89 128 1.89 119 1.89 102 2.00  99 2.00 113 2.00  33 2.29  40 2.67
                            10 2.85   8 2.85  17 2.85  27 3.34  32 3.34  21 3.34
  38  0.847  0.000  0.218- 117 1.89 130 1.89 138 1.89 104 2.00 100 2.00  97 2.00  48 2.29  45 2.67
                             8 2.85  14 2.85  10 2.85  32 3.34  19 3.34  27 3.34
  39  0.847  0.333  0.356- 145 1.91 115 2.23 125 2.23 123 2.23  20 2.29  29 2.61  19 2.85  26 2.85
                            23 2.85
  40  0.347  0.833  0.057- 102 2.00  99 2.00 113 2.00  67 2.56  37 2.67  73 2.68  79 2.74   9 2.85
                             7 2.85  16 2.85
  41  0.347  0.167  0.057- 108 2.00 105 2.00 101 2.00  71 2.59  25 2.67  78 2.71  83 2.78  12 2.85
                            11 2.85   9 2.85
  42  0.347  0.500  0.057- 114 2.00 111 2.00 107 2.00  69 2.57  22 2.67  75 2.70  81 2.76  16 2.85
                            15 2.85  12 2.85
  43  0.847  0.333  0.057- 106 2.00 110 2.00 103 2.00  70 2.58  20 2.67  77 2.71  82 2.77  12 2.85
                            11 2.85  15 2.85
  44  0.847  0.667  0.057- 112 2.00 109 2.00  98 2.00  68 2.56  36 2.67  74 2.69  80 2.75  16 2.85
                            15 2.85   7 2.85
  45  0.847  0.000  0.057- 104 2.00 100 2.00  97 2.00  66 2.55  72 2.67  38 2.67  87 2.79   7 2.85
                             9 2.85  11 2.85
  46  0.667  0.844  0.539- 133 2.02  58 2.43  65 2.45  64 2.45  49 2.80  31 3.19
  47  0.167  0.900  0.650-  86 2.78  65 2.81  51 2.81  59 2.81  64 2.81  76 2.81  52 2.81   2 2.84
                             6 2.84
  48  0.847  0.000  0.356- 117 2.23 130 2.23 138 2.23  38 2.29 134 2.33  49 2.60  32 2.85  19 2.85
                            27 2.85  31 3.16
  49  0.840  0.005  0.513-  48 2.60  65 2.74  76 2.74  50 2.80  46 2.80  28 2.93  31 2.97
  50  0.667  0.067  0.646-  28 2.43  49 2.80  76 2.81  52 2.81  60 2.81  61 2.81  65 2.81  64 2.81
                            85 2.84  84 2.84  88 2.84
  51  0.000  0.734  0.649- 133 2.38  65 2.81  58 2.81  47 2.81  57 2.81  59 2.81  56 2.81   1 2.84
                             3 2.84   2 2.84
  52  0.333  0.067  0.646- 141 2.54  76 2.81  50 2.81  61 2.81  55 2.81  64 2.81  47 2.81  84 2.84
                            86 2.84  90 2.84
  53  0.333  0.400  0.648-  34 2.45 143 2.47  62 2.81  54 2.81  61 2.81  55 2.81  63 2.81  56 2.81
                            95 2.84  92 2.84  96 2.84
  54  0.667  0.400  0.648-  29 2.81  62 2.81  53 2.81  60 2.81  61 2.81  57 2.81  63 2.81  91 2.84
                            95 2.84  93 2.84
  55  0.167  0.234  0.647-  34 2.43  60 2.81  61 2.81  62 2.81  53 2.81  76 2.81  52 2.81  89 2.84
                            90 2.84  92 2.84
  56  0.167  0.567  0.649-  57 2.81  63 2.81  51 2.81  59 2.81  62 2.81  53 2.81  94 2.84  96 2.84
                             3 2.84
  57  0.833  0.567  0.649-  56 2.81  51 2.81  63 2.81  58 2.81  62 2.81  54 2.81  94 2.84  93 2.84
                             1 2.84
  58  0.667  0.734  0.649-  46 2.43  51 2.81  65 2.81  64 2.81  59 2.81  57 2.81  63 2.81   1 2.84
                             5 2.84   4 2.84
  59  0.333  0.734  0.649-  64 2.81  47 2.81  58 2.81  51 2.81  63 2.81  56 2.81   5 2.84   3 2.84
                             6 2.84
  60  0.833  0.234  0.647-  28 2.45  29 2.69  55 2.81  62 2.81  61 2.81  54 2.81  76 2.81  50 2.81
                            89 2.84  88 2.84  91 2.84
  61  0.500  0.234  0.647-  28 2.45  55 2.81  60 2.81  53 2.81  54 2.81  52 2.81  50 2.81  90 2.84
                            88 2.84  95 2.84
  62  0.000  0.400  0.648-  34 2.45 143 2.65  29 2.75  54 2.81  60 2.81  53 2.81  55 2.81  57 2.81
                            56 2.81  91 2.84  92 2.84  94 2.84
  63  0.500  0.567  0.649-  56 2.81  57 2.81  59 2.81  58 2.81  53 2.81  54 2.81  96 2.84  93 2.84
                             5 2.84
  64  0.500  0.900  0.650-  46 2.45  84 2.78  59 2.81  58 2.81  65 2.81  47 2.81  52 2.81  50 2.81
                             6 2.84   4 2.84
  65  0.833  0.900  0.650-  46 2.45  49 2.74  85 2.78  51 2.81  47 2.81  58 2.81  64 2.81  76 2.81
                            50 2.81   2 2.84   4 2.84
  66  0.000  0.955  0.931-  45 2.55  72 2.81  79 2.81  80 2.81  73 2.81  87 2.81  78 2.81   2 2.84
                            85 2.89  86 2.89   9 3.07
  67  0.500  0.788  0.930-  40 2.56  81 2.81  74 2.81  80 2.81  73 2.81  79 2.81  72 2.81   6 2.84
                             4 2.84   5 2.84   7 3.08
  68  0.000  0.621  0.929-  44 2.56  80 2.81  73 2.81  74 2.81  81 2.81  82 2.81  75 2.81   1 2.84
                             3 2.84  94 2.84  16 3.09
  69  0.500  0.455  0.929-  42 2.57  75 2.81  82 2.81  83 2.81  77 2.81  81 2.81  74 2.81  96 2.84
                            93 2.84  95 2.84  15 3.10
  70  0.000  0.288  0.928-  43 2.58  77 2.81  82 2.81  83 2.81  75 2.81  87 2.81  78 2.81  91 2.84
                            92 2.84  89 2.84  12 3.11
  71  0.500  0.121  0.927-  41 2.59  78 2.81  87 2.81  83 2.81  77 2.81  79 2.81  72 2.81  90 2.84
                            88 2.84  84 2.84  11 3.12
  72  0.667  0.955  0.931-  45 2.67  66 2.81  79 2.81  80 2.81  67 2.81  87 2.81  71 2.81   4 2.84
                            85 2.89  84 2.89   7 3.13
  73  0.167  0.788  0.930-  40 2.68  68 2.81  81 2.81  80 2.81  67 2.81  66 2.81  79 2.81   2 2.84
                             6 2.84   3 2.84  16 3.14
  74  0.667  0.621  0.929-  44 2.69  80 2.81  67 2.81  68 2.81  81 2.81  82 2.81  69 2.81   1 2.84
                             5 2.84  93 2.84  15 3.15
  75  0.167  0.455  0.929-  42 2.70  82 2.81  69 2.81  70 2.81  83 2.81  68 2.81  81 2.81  94 2.84
                            96 2.84  92 2.84  12 3.16
  76  0.000  0.067  0.646-  49 2.74  50 2.81  52 2.81  60 2.81  55 2.81  65 2.81  47 2.81  85 2.84
                            86 2.84  89 2.84
  77  0.667  0.288  0.928-  43 2.71  70 2.81  83 2.81  82 2.81  69 2.81  87 2.81  71 2.81  91 2.84
                            95 2.84  88 2.84  11 3.17
  78  0.167  0.121  0.927-  41 2.71  87 2.81  71 2.81  70 2.81  83 2.81  66 2.81  79 2.81  89 2.84
                            90 2.84  86 2.84   9 3.18
  79  0.333  0.955  0.931-  40 2.74  66 2.81  72 2.81  67 2.81  73 2.81  71 2.81  78 2.81   6 2.84
                            84 2.89  86 2.89   9 2.96
  80  0.833  0.788  0.930-  44 2.75  68 2.81  74 2.81  73 2.81  67 2.81  66 2.81  72 2.81   2 2.84
                             4 2.84   1 2.84   7 2.97
  81  0.333  0.621  0.929-  42 2.76  67 2.81  73 2.81  68 2.81  74 2.81  69 2.81  75 2.81   5 2.84
                             3 2.84  96 2.84  16 2.98
  82  0.833  0.455  0.929-  43 2.77  75 2.81  70 2.81  69 2.81  77 2.81  68 2.81  74 2.81  94 2.84
                            93 2.84  91 2.84  15 2.99
  83  0.333  0.288  0.928-  41 2.78  70 2.81  77 2.81  69 2.81  75 2.81  71 2.81  78 2.81  95 2.84
                            92 2.84  90 2.84  12 3.00
  84  0.500  0.011  0.787-  64 2.78  85 2.81  86 2.81  90 2.81  88 2.81   6 2.81   4 2.81  52 2.84
                            50 2.84  71 2.84  79 2.89  72 2.89
  85  0.833  0.011  0.787-  65 2.78  86 2.81  89 2.81  84 2.81  88 2.81   2 2.81   4 2.81  76 2.84
                            50 2.84  87 2.84  66 2.89  72 2.89
  86  0.167  0.011  0.787-  47 2.78  85 2.81  84 2.81  89 2.81  90 2.81   2 2.81   6 2.81  76 2.84
                            52 2.84  78 2.84  66 2.89  79 2.89
  87  0.833  0.121  0.927-  45 2.79  78 2.81  71 2.81  70 2.81  77 2.81  66 2.81  72 2.81  89 2.84
                            88 2.84  85 2.84  11 3.01
  88  0.667  0.178  0.787-  89 2.81  90 2.81  85 2.81  84 2.81  91 2.81  95 2.81  60 2.84  61 2.84
                            87 2.84  71 2.84  77 2.84  50 2.84
  89  0.000  0.178  0.787-  88 2.81  85 2.81  90 2.81  86 2.81  91 2.81  92 2.81  60 2.84  55 2.84
                            87 2.84  78 2.84  70 2.84  76 2.84
  90  0.333  0.178  0.787-  88 2.81  89 2.81  84 2.81  86 2.81  95 2.81  92 2.81  61 2.84  55 2.84
                            71 2.84  78 2.84  83 2.84  52 2.84
  91  0.833  0.344  0.788-  92 2.81  94 2.81  95 2.81  93 2.81  89 2.81  88 2.81  70 2.84  77 2.84
                            62 2.84  54 2.84  60 2.84  82 2.84
  92  0.167  0.344  0.788-  91 2.81  95 2.81  94 2.81  96 2.81  89 2.81  90 2.81  70 2.84  83 2.84
                            62 2.84  53 2.84  55 2.84  75 2.84
  93  0.667  0.511  0.789-  94 2.81  96 2.81  91 2.81  95 2.81   1 2.81   5 2.81  82 2.84  69 2.84
                            57 2.84  63 2.84  54 2.84  74 2.84
  94  0.000  0.511  0.789-  93 2.81  91 2.81  96 2.81  92 2.81   1 2.81   3 2.81  82 2.84  75 2.84
                            57 2.84  56 2.84  62 2.84  68 2.84
  95  0.500  0.344  0.788-  91 2.81  92 2.81  96 2.81  93 2.81  90 2.81  88 2.81  83 2.84  77 2.84
                            53 2.84  54 2.84  61 2.84  69 2.84
  96  0.333  0.511  0.789-  93 2.81  94 2.81  95 2.81  92 2.81   5 2.81   3 2.81  69 2.84  75 2.84
                            63 2.84  56 2.84  53 2.84  81 2.84
  97  0.694  0.949  0.138-   7 1.89  10 1.89  38 2.00  45 2.00
  98  0.847  0.769  0.138-   7 1.89   8 1.89  36 2.00  44 2.00
  99  0.500  0.782  0.138-   7 1.89  17 1.89  37 2.00  40 2.00
 100  0.000  0.949  0.138-   8 1.89   9 1.89  38 2.00  45 2.00
 101  0.194  0.116  0.138-   9 1.89  14 1.89  25 2.00  41 2.00
 102  0.347  0.935  0.138-   9 1.89  10 1.89  37 2.00  40 2.00
 103  0.694  0.282  0.138-  11 1.89  13 1.89  20 2.00  43 2.00
 104  0.847  0.102  0.138-  11 1.89  14 1.89  38 2.00  45 2.00
 105  0.500  0.116  0.138-  11 1.89  10 1.89  25 2.00  41 2.00
 106  0.000  0.282  0.138-  12 1.89  14 1.89  20 2.00  43 2.00
 107  0.194  0.449  0.138-  12 1.89  18 1.89  22 2.00  42 2.00
 108  0.347  0.269  0.138-  12 1.89  13 1.89  25 2.00  41 2.00
 109  0.694  0.616  0.138-  15 1.89  17 1.89  36 2.00  44 2.00
 110  0.847  0.435  0.138-  15 1.89  18 1.89  20 2.00  43 2.00
 111  0.500  0.449  0.138-  15 1.89  13 1.89  22 2.00  42 2.00
 112  0.000  0.616  0.138-  16 1.89  18 1.89  36 2.00  44 2.00
 113  0.194  0.782  0.138-  16 1.89   8 1.89  37 2.00  40 2.00
 114  0.347  0.602  0.138-  16 1.89  17 1.89  22 2.00  42 2.00
 115  0.861  0.218  0.269-  19 1.77  20 1.89  14 2.00  39 2.23
 116  0.167  0.218  0.269-  19 1.77  25 1.89  14 2.00  24 2.23
 117  0.014  0.065  0.269-  19 1.77  38 1.89  14 2.00  48 2.23
 118  0.514  0.565  0.269-  21 1.77  22 1.89  17 2.00  30 2.23
 119  0.361  0.718  0.269-  21 1.77  37 1.89  17 2.00  33 2.23
 120  0.667  0.718  0.269-  21 1.77  36 1.89  17 2.00  35 2.23
 121  0.514  0.231  0.269-  23 1.77  25 1.89  13 2.00  24 2.23
 122  0.361  0.384  0.269-  23 1.77  22 1.89  13 2.00  30 2.23
 123  0.667  0.384  0.269-  23 1.77  20 1.89  13 2.00  39 2.23
 124  0.344  0.287  0.389-  24 1.84  23 1.89
 125  0.014  0.398  0.269-  26 1.77  20 1.89  18 2.00  39 2.23
 126  0.167  0.551  0.269-  26 1.77  22 1.89  18 2.00  30 2.23
 127  0.861  0.551  0.269-  26 1.77  36 1.89  18 2.00  35 2.23
 128  0.514  0.898  0.269-  27 1.77  37 1.89  10 2.00  33 2.23
 129  0.361  0.051  0.269-  27 1.77  25 1.89  10 2.00  24 2.23
 130  0.667  0.051  0.269-  27 1.77  38 1.89  10 2.00  48 2.23
 131  0.507  0.090  0.410-  27 1.90  24 1.97
 132  0.186  0.430  0.396-  30 1.82  26 2.11
 133  0.879  0.782  0.526-  31 1.81  46 2.02  51 2.38
 134  0.064  0.923  0.411- 135 1.26  31 1.51  32 1.95  48 2.33
 135  0.208  0.947  0.409- 134 1.26  33 2.21  31 2.44
 136  0.879  0.782  0.402-  31 1.62  32 1.84  35 1.86
 137  0.167  0.884  0.269-  32 1.77  37 1.89   8 2.00  33 2.23
 138  0.861  0.884  0.269-  32 1.77  38 1.89   8 2.00  48 2.23
 139  0.014  0.731  0.269-  32 1.77  36 1.89   8 2.00  35 2.23
 140  0.166  0.772  0.384-  33 1.83  32 1.83  31 2.03
 141  0.185  0.082  0.514-  52 2.54
 142  0.499  0.428  0.408-  30 1.87  23 1.93
 143  0.186  0.430  0.522-  34 1.28  53 2.47  62 2.65
 144  0.185  0.082  0.386-  24 1.90  19 2.14
 145  0.663  0.268  0.392-  39 1.91  23 1.92
 146  0.053  0.637  0.402-  35 1.95  26 2.39
 
  LATTYP: Found a simple orthorhombic cell.
 ALAT       =     8.4283000000
 B/A-ratio  =     1.7320456082
 C/A-ratio  =     1.9675628537
  
  Lattice vectors:
  
 A1 = (   8.4283000000,   0.0000000000,   0.0000000000)
 A2 = (   0.0000000000,  14.5982000000,   0.0000000000)
 A3 = (   0.0000000000,   0.0000000000,  16.5832100000)


Analysis of symmetry for initial positions (statically):
=====================================================================
 Subroutine PRICEL returns:
 Original cell was already a primitive cell.
 

 Routine SETGRP: Setting up the symmetry group for a 
 simple orthorhombic supercell.


 Subroutine GETGRP returns: Found  1 space group operations
 (whereof  1 operations were pure point group operations)
 out of a pool of  8 trial point group operations.


The static configuration has the point symmetry C_1 .


Analysis of symmetry for dynamics (positions and initial velocities):
=====================================================================
 Subroutine PRICEL returns:
 Original cell was already a primitive cell.
 

 Routine SETGRP: Setting up the symmetry group for a 
 simple orthorhombic supercell.


 Subroutine GETGRP returns: Found  1 space group operations
 (whereof  1 operations were pure point group operations)
 out of a pool of  8 trial point group operations.


The dynamic configuration has the point symmetry C_1 .


Analysis of constrained symmetry for selective dynamics:
=====================================================================
 Subroutine PRICEL returns:
 Original cell was already a primitive cell.
 

 Routine SETGRP: Setting up the symmetry group for a 
 simple orthorhombic supercell.


 Subroutine GETGRP returns: Found  1 space group operations
 (whereof  1 operations were pure point group operations)
 out of a pool of  8 trial point group operations.


The constrained configuration has the point symmetry C_1 .


 Subroutine INISYM returns: Found  1 space group operations
 (whereof  1 operations are pure point group operations),
 and found     1 'primitive' translations

 
 
 KPOINTS: Al_Al2O3                                

Automatic generation of k-mesh.
 generate k-points for:    2    1    1
Space group operators:
 irot       det(A)        alpha          n_x          n_y          n_z        tau_x        tau_y        tau_z
    1     1.000000     0.000001     1.000000     0.000000     0.000000     0.000000     0.000000     0.000000
 
 Subroutine IBZKPT returns following result:
 ===========================================
 
 Found      2 irreducible k-points:
 
 Following reciprocal coordinates:
            Coordinates               Weight
  0.000000  0.000000  0.000000      1.000000
  0.500000  0.000000  0.000000      1.000000
 
 Following cartesian coordinates:
            Coordinates               Weight
  0.000000  0.000000  0.000000      1.000000
  0.059324  0.000000  0.000000      1.000000
 


--------------------------------------------------------------------------------------------------------




 Dimension of arrays:
   k-points           NKPTS =      2   k-points in BZ     NKDIM =      2   number of bands    NBANDS=    368
   number of dos      NEDOS =    301   number of ions     NIONS =    146
   non local maximal  LDIM  =      4   non local SUM 2l+1 LMDIM =      8
   total plane-waves  NPLWV = 580608
   max r-space proj   IRMAX =   4142   max aug-charges    IRDMAX=  11273
   dimension x,y,z NGX =    56 NGY =   96 NGZ =  108
   dimension x,y,z NGXF=   112 NGYF=  192 NGZF=  216
   support grid    NGXF=   112 NGYF=  192 NGZF=  216
   ions per type =              96  50
 NGX,Y,Z   is equivalent  to a cutoff of  11.05, 10.93, 10.83 a.u.
 NGXF,Y,Z  is equivalent  to a cutoff of  22.09, 21.87, 21.65 a.u.


 I would recommend the setting:
   dimension x,y,z NGX =    55 NGY =   95 NGZ =  108
 SYSTEM =  Al_Al2O3                                
 POSCAR =  Al96 O50                                

 Startparameter for this run:
   NWRITE =      2    write-flag & timer
   PREC   = accura    normal or accurate (medium, high low for compatibility)
   ISTART =      0    job   : 0-new  1-cont  2-samecut
   ICHARG =      2    charge: 1-file 2-atom 10-const
   ISPIN  =      1    spin polarized calculation?
   LNONCOLLINEAR =      F non collinear calculations
   LSORBIT =      F    spin-orbit coupling
   INIWAV =      1    electr: 0-lowe 1-rand  2-diag
   LASPH  =      F    aspherical Exc in radial PAW
   METAGGA=      F    non-selfconsistent MetaGGA calc.

 Electronic Relaxation 1
   ENCUT  =  400.0 eV  29.40 Ry    5.42 a.u.  13.74 23.81 27.04*2*pi/ulx,y,z
   ENINI  =  400.0     initial cutoff
   ENAUG  =  605.4 eV  augmentation charge cutoff
   NELM   =    100;   NELMIN=  2; NELMDL= -5     # of ELM steps 
   EDIFF  = 0.1E-02   stopping-criterion for ELM
   LREAL  =      T    real-space projection
   NLSPLINE    = F    spline interpolate recip. space projectors
   LCOMPAT=      F    compatible to vasp.4.4
   GGA_COMPAT  = T    GGA compatible to vasp.4.4-vasp.4.6
   LMAXPAW     = -100 max onsite density
   LMAXMIX     =    2 max onsite mixed and CHGCAR
   VOSKOWN=      0    Vosko Wilk Nusair interpolation
   ROPT   =   -0.00025  -0.00025
 Ionic relaxation
   EDIFFG = 0.1E-01   stopping-criterion for IOM
   NSW    =    100    number of steps for IOM
   NBLOCK =      1;   KBLOCK =    100    inner block; outer block 
   IBRION =      2    ionic relax: 0-MD 1-quasi-New 2-CG
   NFREE  =      1    steps in history (QN), initial steepest desc. (CG)
   ISIF   =      2    stress and relaxation
   IWAVPR =     11    prediction:  0-non 1-charg 2-wave 3-comb
   ISYM   =      2    0-nonsym 1-usesym 2-fastsym
   LCORR  =      T    Harris-Foulkes like correction to forces

   POTIM  = 0.5000    time-step for ionic-motion
   TEIN   =    0.0    initial temperature
   TEBEG  =    0.0;   TEEND  =   0.0 temperature during run
   SMASS  =  -3.00    Nose mass-parameter (am)
   estimated Nose-frequenzy (Omega)   =  0.10E-29 period in steps =****** mass=  -0.162E-26a.u.
   SCALEE = 1.0000    scale energy and forces
   NPACO  =    256;   APACO  = 16.0  distance and # of slots for P.C.
   PSTRESS=    0.0 pullay stress

  Mass of Ions in am
   POMASS =  26.98 16.00
  Ionic Valenz
   ZVAL   =   3.00  6.00
  Atomic Wigner-Seitz radii
   RWIGS  =  -1.00 -1.00
  virtual crystal weights 
   VCA    =   1.00  1.00
   NELECT =     588.0000    total number of electrons
   NUPDOWN=      -1.0000    fix difference up-down

 DOS related values:
   EMIN   =  10.00;   EMAX   =-10.00  energy-range for DOS
   EFERMI =   0.00
   ISMEAR =     1;   SIGMA  =   0.10  broadening in eV -4-tet -1-fermi 0-gaus

 Electronic relaxation 2 (details)
   IALGO  =     68    algorithm
   LDIAG  =      T    sub-space diagonalisation (order eigenvalues)
   LSUBROT=      F    optimize rotation matrix (better conditioning)
   TURBO    =      0    0=normal 1=particle mesh
   IRESTART =      0    0=no restart 2=restart with 2 vectors
   NREBOOT  =      0    no. of reboots
   NMIN     =      0    reboot dimension
   EREF     =   0.00    reference energy to select bands
   IMIX   =      4    mixing-type and parameters
     AMIX     =   0.40;   BMIX     =  1.00
     AMIX_MAG =   1.60;   BMIX_MAG =  1.00
     AMIN     =   0.10
     WC   =   100.;   INIMIX=   1;  MIXPRE=   1;  MAXMIX= -45

 Intra band minimization:
   WEIMIN = 0.0010     energy-eigenvalue tresh-hold
   EBREAK =  0.68E-06  absolut break condition
   DEPER  =   0.30     relativ break condition  

   TIME   =   0.40     timestep for ELM

  volume/ion in A,a.u.               =      13.98        94.31
  Fermi-wavevector in a.u.,A,eV,Ry     =   1.081346  2.043447 15.909414  1.169309
  Thomas-Fermi vector in A             =   2.217360
 
 Write flags
   LWAVE  =      F    write WAVECAR
   LCHARG =      F    write CHGCAR
   LVTOT  =      F    write LOCPOT, total local potential
   LVHAR  =      F    write LOCPOT, Hartree potential only
   LELF   =      F    write electronic localiz. function (ELF)
   LORBIT =      0    0 simple, 1 ext, 2 COOP (PROOUT)


 Dipole corrections
   LMONO  =      F    monopole corrections only (constant potential shift)
   LDIPOL =      F    correct potential (dipole corrections)
   IDIPOL =      0    1-x, 2-y, 3-z, 4-all directions 
   EPSILON=  1.0000000 bulk dielectric constant

 Exchange correlation treatment:
   GGA     =    --    GGA type
   LEXCH   =     8    internal setting for exchange type
   VOSKOWN=      0    Vosko Wilk Nusair interpolation
   LHFCALC =     F    Hartree Fock is set to
   LHFONE  =     F    Hartree Fock one center treatment
   AEXX    =    0.0000 exact exchange contribution

 Linear response parameters
   LEPSILON=     F    determine dielectric tensor
   LRPA    =     F    only Hartree local field effects (RPA)
   LNABLA  =     F    use nabla operator in PAW spheres
   LVEL    =     F    velocity operator in full k-point grid
   LINTERFAST=   F  fast interpolation
   KINTER  =     0    interpolate to denser k-point grid
   CSHIFT  =0.1000    complex shift for real part using Kramers Kronig
   OMEGAMAX=  -1.0    maximum frequency
   DEG_THRESHOLD= 0.2000000E-02 threshold for treating states as degnerate
   RTIME   =    0.100 relaxation time in fs

 Orbital magnetization related:
   ORBITALMAG=     F  switch on orbital magnetization
   LCHIMAG   =     F  perturbation theory with respect to B field
   DQ        =  0.001000  dq finite difference perturbation B field



--------------------------------------------------------------------------------------------------------


 conjugate gradient relaxation of ions
   using selective dynamics as specified on POSCAR
 charge density and potential will be updated during run
 non-spin polarized calculation
 RMM-DIIS sequential band-by-band and
  variant of blocked Davidson during initial phase
 perform sub-space diagonalisation
    before iterative eigenvector-optimisation
 modified Broyden-mixing scheme, WC =      100.0
 initial mixing is a Kerker type mixing with AMIX =  0.4000 and BMIX =      1.0000
 Hartree-type preconditioning will be used
 using additional bands           74
 real space projection scheme for non local part
 use partial core corrections
 calculate Harris-corrections to forces 
   (improved forces if not selfconsistent)
 use gradient corrections 
 use of overlap-Matrix (Vanderbilt PP)
 Methfessel and Paxton  Order N= 1 SIGMA  =   0.10


--------------------------------------------------------------------------------------------------------


  energy-cutoff  :      400.00
  volume of cell :     2040.37
      direct lattice vectors                 reciprocal lattice vectors
      8.428300000   0.000000000   0.000000000      0.118647889   0.000000000   0.000000000
      0.000000000  14.598200000   0.000000000      0.000000000   0.068501596   0.000000000
      0.000000000   0.000000000  16.583210000      0.000000000   0.000000000   0.060301956

  length of vectors
      8.428300000  14.598200000  16.583210000      0.118647889   0.068501596   0.060301956


 
 k-points in units of 2pi/SCALE and weight: Al_Al2O3                                
   0.00000000  0.00000000  0.00000000       0.500
   0.05932394  0.00000000  0.00000000       0.500
 
 k-points in reciprocal lattice and weights: Al_Al2O3                                
   0.00000000  0.00000000  0.00000000       0.500
   0.50000000  0.00000000  0.00000000       0.500
 
 position of ions in fractional coordinates (direct lattice) 
   0.83333500  0.67754300  0.78930800
   0.00000000  0.84420700  0.78999400
   0.16666700  0.67754300  0.78930800
   0.66666800  0.84420700  0.78999400
   0.50000100  0.67754300  0.78930800
   0.33333400  0.84420700  0.78999400
   0.68026100  0.83333600  0.08660300
   0.01359400  0.83333600  0.18854400
   0.18025900  0.00000000  0.08660300
   0.51359300  0.00000000  0.18854400
   0.68026100  0.16666700  0.08660300
   0.18025900  0.33333300  0.08660300
   0.51359300  0.33333300  0.18854400
   0.01359400  0.16666700  0.18854400
   0.68026100  0.50000000  0.08660300
   0.18025900  0.66666600  0.08660300
   0.51359300  0.66666600  0.18854400
   0.01359400  0.50000000  0.18854400
   0.01359400  0.16666700  0.32676700
   0.84692800  0.33333300  0.21815900
   0.51359300  0.66666600  0.32676700
   0.34692800  0.50000000  0.21815900
   0.51359300  0.33333300  0.32676700
   0.34692800  0.16666700  0.35638700
   0.34692800  0.16666700  0.21815900
   0.01359400  0.50000000  0.32676700
   0.51359300  0.00000000  0.32676700
   0.66666800  0.17754300  0.53694800
   0.84013200  0.33877200  0.51384600
   0.34692800  0.50000000  0.35638700
   0.00679700  0.83877200  0.45458000
   0.01359400  0.83333600  0.32676700
   0.34692800  0.83333600  0.35638700
   0.16666700  0.34421000  0.53749700
   0.84692800  0.66666700  0.35638700
   0.84692800  0.66666700  0.21815900
   0.34692800  0.83333600  0.21815900
   0.84692800  0.00000000  0.21815900
   0.84692800  0.33333300  0.35638700
   0.34692800  0.83333600  0.05698300
   0.34692800  0.16666700  0.05698300
   0.34692800  0.50000000  0.05698300
   0.84692800  0.33333300  0.05698300
   0.84692800  0.66666700  0.05698300
   0.84692800  0.00000000  0.05698300
   0.66666800  0.84420700  0.53914600
   0.16666700  0.90048800  0.64988900
   0.84692800  0.00000000  0.35638700
   0.84013200  0.00543800  0.51329500
   0.66666800  0.06715700  0.64645100
   0.00000000  0.73382300  0.64920200
   0.33333400  0.06715700  0.64645100
   0.33333400  0.40049000  0.64782600
   0.66666800  0.40049000  0.64782600
   0.16666700  0.23382400  0.64714600
   0.16666700  0.56715700  0.64851200
   0.83333500  0.56715700  0.64851200
   0.66666800  0.73382300  0.64920200
   0.33333400  0.73382300  0.64920200
   0.83333500  0.23382400  0.64714600
   0.50000100  0.23382400  0.64714600
   0.00000000  0.40049000  0.64782600
   0.50000100  0.56715700  0.64851200
   0.50000100  0.90048800  0.64988900
   0.83333500  0.90048800  0.64988900
   0.00000000  0.95459700  0.93078000
   0.50000100  0.78792600  0.93010000
   0.00000000  0.62126200  0.92941400
   0.50000100  0.45459500  0.92872500
   0.00000000  0.28792900  0.92803900
   0.50000100  0.12126200  0.92735000
   0.66666800  0.95459700  0.93078000
   0.16666700  0.78792600  0.93010000
   0.66666800  0.62126200  0.92941400
   0.16666700  0.45459500  0.92872500
   0.00000000  0.06715700  0.64645100
   0.66666800  0.28792900  0.92803900
   0.16666700  0.12126200  0.92735000
   0.33333400  0.95459700  0.93078000
   0.83333500  0.78792600  0.93010000
   0.33333400  0.62126200  0.92941400
   0.83333500  0.45459500  0.92872500
   0.33333400  0.28792900  0.92803900
   0.50000100  0.01087700  0.78655700
   0.83333500  0.01087700  0.78655700
   0.16666700  0.01087700  0.78655700
   0.83333500  0.12126200  0.92735000
   0.66666800  0.17754300  0.78724600
   0.00000000  0.17754300  0.78724600
   0.33333400  0.17754300  0.78724600
   0.83333500  0.34421000  0.78793300
   0.16666700  0.34421000  0.78793300
   0.66666800  0.51087600  0.78861900
   0.00000000  0.51087600  0.78861900
   0.50000100  0.34421000  0.78793300
   0.33333400  0.51087600  0.78861900
   0.69385400  0.94897300  0.13757100
   0.84692800  0.76871800  0.13757100
   0.50000000  0.78230900  0.13757100
   0.00000000  0.94897300  0.13757100
   0.19385400  0.11564200  0.13757100
   0.34692800  0.93538200  0.13757100
   0.69385400  0.28230900  0.13757100
   0.84692800  0.10204900  0.13757100
   0.50000000  0.11564300  0.13757100
   0.00000000  0.28230900  0.13757100
   0.19385400  0.44897600  0.13757100
   0.34692800  0.26871500  0.13757100
   0.69385400  0.61564200  0.13757100
   0.84692800  0.43538200  0.13757100
   0.50000000  0.44897600  0.13757100
   0.00000000  0.61564200  0.13757100
   0.19385400  0.78230900  0.13757100
   0.34692800  0.60204800  0.13757100
   0.86052100  0.21769100  0.26913200
   0.16666700  0.21769100  0.26913200
   0.01359400  0.06461800  0.26913200
   0.51359300  0.56461800  0.26913200
   0.36052100  0.71769100  0.26913200
   0.66666700  0.71769100  0.26913200
   0.51359300  0.23128500  0.26913200
   0.36052100  0.38435800  0.26913200
   0.66666700  0.38435800  0.26913200
   0.34400100  0.28704100  0.38917400
   0.01359400  0.39795100  0.26913200
   0.16666700  0.55102500  0.26913200
   0.86052100  0.55102500  0.26913200
   0.51359300  0.89795300  0.26913200
   0.36052100  0.05102500  0.26913200
   0.66666700  0.05102500  0.26913200
   0.50734300  0.08999500  0.40984600
   0.18550600  0.42958900  0.39559700
   0.87867100  0.78180900  0.52637200
   0.06435000  0.92266200  0.41062800
   0.20802900  0.94701400  0.40909200
   0.87867100  0.78180900  0.40160900
   0.16666700  0.88435600  0.26913200
   0.86052100  0.88435600  0.26913200
   0.01359400  0.73128200  0.26913200
   0.16571800  0.77223900  0.38400600
   0.18548000  0.08179800  0.51392800
   0.49899000  0.42768300  0.40817600
   0.18550600  0.42958900  0.52156200
   0.18548000  0.08179800  0.38605500
   0.66346100  0.26827800  0.39211000
   0.05341600  0.63734400  0.40240300
 
 position of ions in cartesian coordinates  (Angst):
   7.02359738  9.89090822 13.08926032
   0.00000000 12.32390263 13.10063640
   1.40471948  9.89090822 13.08926032
   5.61887790 12.32390263 13.10063640
   4.21415843  9.89090822 13.08926032
   2.80943895 12.32390263 13.10063640
   5.73344379 12.16520560  1.43615574
   0.11457431 12.16520560  3.12666475
   1.51927693  0.00000000  1.43615574
   4.32871588  0.00000000  3.12666475
   5.73344379  2.43303820  1.43615574
   1.51927693  4.86606180  1.43615574
   4.32871588  4.86606180  3.12666475
   0.11457431  2.43303820  3.12666475
   5.73344379  7.29910000  1.43615574
   1.51927693  9.73212360  1.43615574
   4.32871588  9.73212360  3.12666475
   0.11457431  7.29910000  3.12666475
   0.11457431  2.43303820  5.41884578
   7.13816326  4.86606180  3.61777651
   4.32871588  9.73212360  5.41884578
   2.92401326  7.29910000  3.61777651
   4.32871588  4.86606180  5.41884578
   2.92401326  2.43303820  5.91004046
   2.92401326  2.43303820  3.61777651
   0.11457431  7.29910000  5.41884578
   4.32871588  0.00000000  5.41884578
   5.61887790  2.59180822  8.90432144
   7.08088454  4.94546141  8.52121613
   2.92401326  7.29910000  5.91004046
   0.05728716 12.24456141  7.53839560
   0.11457431 12.16520560  5.41884578
   2.92401326 12.16520560  5.91004046
   1.40471948  5.02484642  8.91342563
   7.13816326  9.73213820  5.91004046
   7.13816326  9.73213820  3.61777651
   2.92401326 12.16520560  3.61777651
   7.13816326  0.00000000  3.61777651
   7.13816326  4.86606180  5.91004046
   2.92401326 12.16520560  0.94496106
   2.92401326  2.43303820  0.94496106
   2.92401326  7.29910000  0.94496106
   7.13816326  4.86606180  0.94496106
   7.13816326  9.73213820  0.94496106
   7.13816326  0.00000000  0.94496106
   5.61887790 12.32390263  8.94077134
   1.40471948 13.14550392 10.77724576
   7.13816326  0.00000000  5.91004046
   7.08088454  0.07938501  8.51207878
   5.61887790  0.98037132 10.72023269
   0.00000000 10.71249492 10.76585310
   2.80943895  0.98037132 10.72023269
   2.80943895  5.84643312 10.74303460
   5.61887790  5.84643312 10.74303460
   1.40471948  3.41340952 10.73175802
   1.40471948  8.27947132 10.75441068
   7.02359738  8.27947132 10.75441068
   5.61887790 10.71249492 10.76585310
   2.80943895 10.71249492 10.76585310
   7.02359738  3.41340952 10.73175802
   4.21415843  3.41340952 10.73175802
   0.00000000  5.84643312 10.74303460
   4.21415843  8.27947132 10.75441068
   4.21415843 13.14550392 10.77724576
   7.02359738 13.14550392 10.77724576
   0.00000000 13.93539793 15.43532020
   4.21415843 11.50230133 15.42404362
   0.00000000  9.06930693 15.41266754
   4.21415843  6.63626873 15.40124171
   0.00000000  4.20324513 15.38986563
   4.21415843  1.77020693 15.37843979
   5.61887790 13.93539793 15.43532020
   1.40471948 11.50230133 15.42404362
   5.61887790  9.06930693 15.41266754
   1.40471948  6.63626873 15.40124171
   0.00000000  0.98037132 10.72023269
   5.61887790  4.20324513 15.38986563
   1.40471948  1.77020693 15.37843979
   2.80943895 13.93539793 15.43532020
   7.02359738 11.50230133 15.42404362
   2.80943895  9.06930693 15.41266754
   7.02359738  6.63626873 15.40124171
   2.80943895  4.20324513 15.38986563
   4.21415843  0.15878462 13.04363991
   7.02359738  0.15878462 13.04363991
   1.40471948  0.15878462 13.04363991
   7.02359738  1.77020693 15.37843979
   5.61887790  2.59180822 13.05506574
   0.00000000  2.59180822 13.05506574
   2.80943895  2.59180822 13.05506574
   7.02359738  5.02484642 13.06645840
   1.40471948  5.02484642 13.06645840
   5.61887790  7.45787002 13.07783449
   0.00000000  7.45787002 13.07783449
   4.21415843  5.02484642 13.06645840
   2.80943895  7.45787002 13.07783449
   5.84800967 13.85329765  2.28136878
   7.13816326 11.22189911  2.28136878
   4.21415000 11.42030324  2.28136878
   0.00000000 13.85329765  2.28136878
   1.63385967  1.68816504  2.28136878
   2.92401326 13.65489351  2.28136878
   5.84800967  4.12120324  2.28136878
   7.13816326  1.48973171  2.28136878
   4.21415000  1.68817964  2.28136878
   0.00000000  4.12120324  2.28136878
   1.63385967  6.55424144  2.28136878
   2.92401326  3.92275531  2.28136878
   5.84800967  8.98726504  2.28136878
   7.13816326  6.35579351  2.28136878
   4.21415000  6.55424144  2.28136878
   0.00000000  8.98726504  2.28136878
   1.63385967 11.42030324  2.28136878
   2.92401326  8.78881711  2.28136878
   7.25272914  3.17789676  4.46307247
   1.40471948  3.17789676  4.46307247
   0.11457431  0.94330649  4.46307247
   4.32871588  8.24240649  4.46307247
   3.03857914 10.47699676  4.46307247
   5.61886948 10.47699676  4.46307247
   4.32871588  3.37634469  4.46307247
   3.03857914  5.61093496  4.46307247
   5.61886948  5.61093496  4.46307247
   2.89934363  4.19028193  6.45375417
   0.11457431  5.80936829  4.46307247
   1.40471948  8.04397316  4.46307247
   7.25272914  8.04397316  4.46307247
   4.32871588 13.10849748  4.46307247
   3.03857914  0.74487316  4.46307247
   5.61886948  0.74487316  4.46307247
   4.27603901  1.31376501  6.79656229
   1.56350022  6.27122614  6.56026813
   7.40570279 11.41300414  8.72893741
   0.54236110 13.46920441  6.80953036
   1.75333082 13.82469977  6.78405855
   7.40570279 11.41300414  6.65996638
   1.40471948 12.91000576  4.46307247
   7.25272914 12.91000576  4.46307247
   0.11457431 10.67540089  4.46307247
   1.39672102 11.27329937  6.36805214
   1.56328108  1.19410356  8.52257595
   4.20563742  6.24340197  6.76886832
   1.56350022  6.27122614  8.64917217
   1.56328108  1.19410356  6.40203114
   5.59184835  3.91637590  6.50244247
   0.45020607  9.30407518  6.67313345
 


--------------------------------------------------------------------------------------------------------


 k-point  1 :   0.0000 0.0000 0.0000  plane waves:   37067
 k-point  2 :   0.5000 0.0000 0.0000  plane waves:   37020

 maximum and minimum number of plane-waves per node :      9291     9237

 maximum number of plane-waves:     37067
 maximum index in each direction: 
   IXMAX=   13   IYMAX=   23   IZMAX=   27
   IXMIN=  -14   IYMIN=  -23   IZMIN=  -27

 NGX is ok and might be reduce to  56
 NGY is ok and might be reduce to  94
 WARNING: aliasing errors must be expected set NGZ to 110 to avoid them
 aliasing errors are usually negligible using standard VASP settings
 and one can safely disregard these warnings

 real space projection operators:
  total allocation   :      30630.69 KBytes
  max/ min on nodes  :       7674.56       7640.31


 parallel 3D FFT for wavefunctions:
    minimum data exchange during FFTs selected (reduces bandwidth)
 parallel 3D FFT for charge:
    minimum data exchange during FFTs selected (reduces bandwidth)


 total amount of memory used by VASP on root node    88802. kBytes
========================================================================

   base      :      30000. kBytes
   nonlr-proj:      19668. kBytes
   fftplans  :       9736. kBytes
   grid      :      15178. kBytes
   one-center:        113. kBytes
   wavefun   :      14107. kBytes
 
     INWAV:  cpu time    0.0000: real time    0.0001
 Broyden mixing: mesh for mixing (old mesh)
   NGX = 27   NGY = 47   NGZ = 55
  (NGX  =112   NGY  =192   NGZ  =216)
  gives a total of  69795 points

 initial charge density was supplied:
 charge density of overlapping atoms calculated
 number of electron     588.0000000 magnetization 
 keeping initial charge density in first step


--------------------------------------------------------------------------------------------------------


 Maximum index for non-local projection operator         1012
 Maximum index for augmentation-charges          585 (set IRDMAX)


--------------------------------------------------------------------------------------------------------


 First call to EWALD:  gamma=   0.140
 Maximum number of real-space cells 4x 2x 2
 Maximum number of reciprocal cells 2x 3x 3

 FEWALD executed in parallel
    FEWALD:  cpu time    0.0094: real time    0.0097


----------------------------------------- Iteration    1(   1)  ---------------------------------------


    POTLOK:  cpu time    0.1408: real time    0.1499
    SETDIJ:  cpu time    0.0159: real time    0.0164
     EDDAV:  cpu time    5.8656: real time    6.2360
       DOS:  cpu time    0.0009: real time    0.0009
    --------------------------------------------
      LOOP:  cpu time    6.0269: real time    6.4187

 eigenvalue-minimisations  :  1472
 total energy-change (2. order) : 0.2659862E+04  (-0.2225038E+05)
 number of electron     588.0000000 magnetization 
 augmentation part      588.0000000 magnetization 

 Free energy of the ion-electron system (eV)
  ---------------------------------------------------
  alpha Z        PSCENC =       302.72888638
  Ewald energy   TEWEN  =      2724.52832679
  -Hartree energ DENC   =    -30915.94246572
  -exchange      EXHF   =         0.00000000
  -V(xc)+E(xc)   XCENC  =     -1118.92828342
  PAW double counting   =     23682.68892860   -20704.98697045
  entropy T*S    EENTRO =         0.00099673
  eigenvalues    EBANDS =      1936.94976149
  atomic energy  EATOM  =     26752.82261666
  Solvation  Ediel_sol  =         0.00000000
  ---------------------------------------------------
  free energy    TOTEN  =      2659.86179706 eV

  energy without entropy =     2659.86080033  energy(sigma->0) =     2659.86146481


--------------------------------------------------------------------------------------------------------




----------------------------------------- Iteration    1(   2)  ---------------------------------------


     EDDAV:  cpu time    7.1434: real time    7.5712
       DOS:  cpu time    0.0009: real time    0.0009
    --------------------------------------------
      LOOP:  cpu time    7.1460: real time    7.5804

 eigenvalue-minimisations  :  1920
 total energy-change (2. order) :-0.3126120E+04  (-0.2942799E+04)
 number of electron     588.0000000 magnetization 
 augmentation part      588.0000000 magnetization 

 Free energy of the ion-electron system (eV)
  ---------------------------------------------------
  alpha Z        PSCENC =       302.72888638
  Ewald energy   TEWEN  =      2724.52832679
  -Hartree energ DENC   =    -30915.94246572
  -exchange      EXHF   =         0.00000000
  -V(xc)+E(xc)   XCENC  =     -1118.92828342
  PAW double counting   =     23682.68892860   -20704.98697045
  entropy T*S    EENTRO =        -0.00378592
  eigenvalues    EBANDS =     -1189.16585006
  atomic energy  EATOM  =     26752.82261666
  Solvation  Ediel_sol  =         0.00000000
  ---------------------------------------------------
  free energy    TOTEN  =      -466.25859714 eV

  energy without entropy =     -466.25481122  energy(sigma->0) =     -466.25733516


--------------------------------------------------------------------------------------------------------




----------------------------------------- Iteration    1(   3)  ---------------------------------------


     EDDAV:  cpu time    6.5260: real time    6.7299
       DOS:  cpu time    0.0008: real time    0.0008
    --------------------------------------------
      LOOP:  cpu time    6.5283: real time    6.7356

 eigenvalue-minimisations  :  1696
 total energy-change (2. order) :-0.3683657E+03  (-0.3638275E+03)
 number of electron     588.0000000 magnetization 
 augmentation part      588.0000000 magnetization 

 Free energy of the ion-electron system (eV)
  ---------------------------------------------------
  alpha Z        PSCENC =       302.72888638
  Ewald energy   TEWEN  =      2724.52832679
  -Hartree energ DENC   =    -30915.94246572
  -exchange      EXHF   =         0.00000000
  -V(xc)+E(xc)   XCENC  =     -1118.92828342
  PAW double counting   =     23682.68892860   -20704.98697045
  entropy T*S    EENTRO =        -0.00927886
  eigenvalues    EBANDS =     -1557.52603864
  atomic energy  EATOM  =     26752.82261666
  Solvation  Ediel_sol  =         0.00000000
  ---------------------------------------------------
  free energy    TOTEN  =      -834.62427865 eV

  energy without entropy =     -834.61499980  energy(sigma->0) =     -834.62118570


--------------------------------------------------------------------------------------------------------




----------------------------------------- Iteration    1(   4)  ---------------------------------------


     EDDAV:  cpu time    6.7650: real time    6.8748
       DOS:  cpu time    0.0008: real time    0.0008
    --------------------------------------------
      LOOP:  cpu time    6.7685: real time    6.8832

 eigenvalue-minimisations  :  1728
 total energy-change (2. order) :-0.9227479E+01  (-0.9166381E+01)
 number of electron     588.0000000 magnetization 
 augmentation part      588.0000000 magnetization 

 Free energy of the ion-electron system (eV)
  ---------------------------------------------------
  alpha Z        PSCENC =       302.72888638
  Ewald energy   TEWEN  =      2724.52832679
  -Hartree energ DENC   =    -30915.94246572
  -exchange      EXHF   =         0.00000000
  -V(xc)+E(xc)   XCENC  =     -1118.92828342
  PAW double counting   =     23682.68892860   -20704.98697045
  entropy T*S    EENTRO =        -0.00924422
  eigenvalues    EBANDS =     -1566.75355224
  atomic energy  EATOM  =     26752.82261666
  Solvation  Ediel_sol  =         0.00000000
  ---------------------------------------------------
  free energy    TOTEN  =      -843.85175762 eV

  energy without entropy =     -843.84251340  energy(sigma->0) =     -843.84867622


--------------------------------------------------------------------------------------------------------




----------------------------------------- Iteration    1(   5)  ---------------------------------------


     EDDAV:  cpu time    7.2653: real time    7.4510
       DOS:  cpu time    0.0009: real time    0.0009
    CHARGE:  cpu time    0.3992: real time    0.4075
    MIXING:  cpu time    0.0042: real time    0.0043
    --------------------------------------------
      LOOP:  cpu time    7.6713: real time    7.8692

 eigenvalue-minimisations  :  1880
 total energy-change (2. order) :-0.2618024E+00  (-0.2615490E+00)
 number of electron     588.0000059 magnetization 
 augmentation part       36.1078499 magnetization 

 Broyden mixing:
  rms(total) = 0.54918E+01    rms(broyden)= 0.54874E+01
  rms(prec ) = 0.63756E+01
  weight for this iteration     100.00

 Free energy of the ion-electron system (eV)
  ---------------------------------------------------
  alpha Z        PSCENC =       302.72888638
  Ewald energy   TEWEN  =      2724.52832679
  -Hartree energ DENC   =    -30915.94246572
  -exchange      EXHF   =         0.00000000
  -V(xc)+E(xc)   XCENC  =     -1118.92828342
  PAW double counting   =     23682.68892860   -20704.98697045
  entropy T*S    EENTRO =        -0.00924501
  eigenvalues    EBANDS =     -1567.01535383
  atomic energy  EATOM  =     26752.82261666
  Solvation  Ediel_sol  =         0.00000000
  ---------------------------------------------------
  free energy    TOTEN  =      -844.11356001 eV

  energy without entropy =     -844.10431499  energy(sigma->0) =     -844.11047834


--------------------------------------------------------------------------------------------------------




----------------------------------------- Iteration    1(   6)  ---------------------------------------


    POTLOK:  cpu time    0.1453: real time    0.1502
    SETDIJ:  cpu time    0.0146: real time    0.0154
    EDDIAG:  cpu time    1.0538: real time    1.0715
  RMM-DIIS:  cpu time    3.2067: real time    3.2514
    ORTHCH:  cpu time    0.2595: real time    0.2634
       DOS:  cpu time    0.0009: real time    0.0011
    CHARGE:  cpu time    0.4007: real time    0.4060
    MIXING:  cpu time    0.0050: real time    0.0050
    --------------------------------------------
      LOOP:  cpu time    5.0883: real time    5.1692

 eigenvalue-minimisations  :  1490
 total energy-change (2. order) : 0.6718698E+02  (-0.4142010E+02)
 number of electron     588.0000053 magnetization 
 augmentation part       25.6132956 magnetization 

 Broyden mixing:
  rms(total) = 0.46754E+01    rms(broyden)= 0.46691E+01
  rms(prec ) = 0.64135E+01
  weight for this iteration     100.00

 eigenvalues of (default mixing * dielectric matrix)
  average eigenvalue GAMMA=   0.5674
  0.5674

 Free energy of the ion-electron system (eV)
  ---------------------------------------------------
  alpha Z        PSCENC =       302.72888638
  Ewald energy   TEWEN  =      2724.52832679
  -Hartree energ DENC   =    -31957.04959091
  -exchange      EXHF   =         0.00000000
  -V(xc)+E(xc)   XCENC  =     -1056.52762542
  PAW double counting   =     31223.13277241   -28260.60713111
  entropy T*S    EENTRO =         0.02083345
  eigenvalues    EBANDS =      -505.97566681
  atomic energy  EATOM  =     26752.82261666
  Solvation  Ediel_sol  =         0.00000000
  ---------------------------------------------------
  free energy    TOTEN  =      -776.92657856 eV

  energy without entropy =     -776.94741201  energy(sigma->0) =     -776.93352305


--------------------------------------------------------------------------------------------------------




----------------------------------------- Iteration    1(   7)  ---------------------------------------


    POTLOK:  cpu time    0.1415: real time    0.1456
    SETDIJ:  cpu time    0.0149: real time    0.0150
    EDDIAG:  cpu time    1.0903: real time    1.1052
  RMM-DIIS:  cpu time    3.3533: real time    3.4053
    ORTHCH:  cpu time    0.2474: real time    0.2617
       DOS:  cpu time    0.0009: real time    0.0009
    CHARGE:  cpu time    0.4022: real time    0.4230
    MIXING:  cpu time    0.0041: real time    0.0046
    --------------------------------------------
      LOOP:  cpu time    5.2570: real time    5.3694

 eigenvalue-minimisations  :  1518
 total energy-change (2. order) :-0.3099700E+01  (-0.1075337E+02)
 number of electron     588.0000050 magnetization 
 augmentation part       30.0694512 magnetization 

 Broyden mixing:
  rms(total) = 0.25244E+01    rms(broyden)= 0.25173E+01
  rms(prec ) = 0.40298E+01
  weight for this iteration     100.00

 eigenvalues of (default mixing * dielectric matrix)
  average eigenvalue GAMMA=   0.6406
  0.9334  0.3478

 Free energy of the ion-electron system (eV)
  ---------------------------------------------------
  alpha Z        PSCENC =       302.72888638
  Ewald energy   TEWEN  =      2724.52832679
  -Hartree energ DENC   =    -31701.49560104
  -exchange      EXHF   =         0.00000000
  -V(xc)+E(xc)   XCENC  =     -1062.90768771
  PAW double counting   =     33162.98374532   -30198.00730934
  entropy T*S    EENTRO =        -0.02264573
  eigenvalues    EBANDS =      -760.65660979
  atomic energy  EATOM  =     26752.82261666
  Solvation  Ediel_sol  =         0.00000000
  ---------------------------------------------------
  free energy    TOTEN  =      -780.02627845 eV

  energy without entropy =     -780.00363272  energy(sigma->0) =     -780.01872988


--------------------------------------------------------------------------------------------------------




----------------------------------------- Iteration    1(   8)  ---------------------------------------


    POTLOK:  cpu time    0.1388: real time    0.1475
    SETDIJ:  cpu time    0.0142: real time    0.0154
    EDDIAG:  cpu time    1.0228: real time    1.0789
  RMM-DIIS:  cpu time    3.1587: real time    3.3451
    ORTHCH:  cpu time    0.2490: real time    0.2603
       DOS:  cpu time    0.0008: real time    0.0008
    CHARGE:  cpu time    0.3734: real time    0.3947
    MIXING:  cpu time    0.0049: real time    0.0052
    --------------------------------------------
      LOOP:  cpu time    4.9645: real time    5.2533

 eigenvalue-minimisations  :  1488
 total energy-change (2. order) : 0.2002933E+02  (-0.8051256E+00)
 number of electron     588.0000048 magnetization 
 augmentation part       29.3801995 magnetization 

 Broyden mixing:
  rms(total) = 0.17909E+01    rms(broyden)= 0.17904E+01
  rms(prec ) = 0.22124E+01
  weight for this iteration     100.00

 eigenvalues of (default mixing * dielectric matrix)
  average eigenvalue GAMMA=   0.8151
  0.3805  1.0324  1.0324

 Free energy of the ion-electron system (eV)
  ---------------------------------------------------
  alpha Z        PSCENC =       302.72888638
  Ewald energy   TEWEN  =      2724.52832679
  -Hartree energ DENC   =    -31848.14935050
  -exchange      EXHF   =         0.00000000
  -V(xc)+E(xc)   XCENC  =     -1057.81767215
  PAW double counting   =     36093.40085475   -33128.30379124
  entropy T*S    EENTRO =        -0.00660045
  eigenvalues    EBANDS =      -599.20021733
  atomic energy  EATOM  =     26752.82261666
  Solvation  Ediel_sol  =         0.00000000
  ---------------------------------------------------
  free energy    TOTEN  =      -759.99694708 eV

  energy without entropy =     -759.99034663  energy(sigma->0) =     -759.99474693


--------------------------------------------------------------------------------------------------------




----------------------------------------- Iteration    1(   9)  ---------------------------------------


    POTLOK:  cpu time    0.1395: real time    0.1463
    SETDIJ:  cpu time    0.0145: real time    0.0145
    EDDIAG:  cpu time    1.0698: real time    1.0698
  RMM-DIIS:  cpu time    3.2231: real time    3.2232
    ORTHCH:  cpu time    0.2539: real time    0.2565
       DOS:  cpu time    0.0010: real time    0.0010
    CHARGE:  cpu time    0.4131: real time    0.4189
    MIXING:  cpu time    0.0043: real time    0.0045
    --------------------------------------------
      LOOP:  cpu time    5.1215: real time    5.1436

 eigenvalue-minimisations  :  1481
 total energy-change (2. order) : 0.5592502E+01  (-0.7095470E+00)
 number of electron     588.0000048 magnetization 
 augmentation part       29.0085856 magnetization 

 Broyden mixing:
  rms(total) = 0.97584E+00    rms(broyden)= 0.97456E+00
  rms(prec ) = 0.13875E+01
  weight for this iteration     100.00

 eigenvalues of (default mixing * dielectric matrix)
  average eigenvalue GAMMA=   0.8251
  1.5133  1.0243  0.3815  0.3815

 Free energy of the ion-electron system (eV)
  ---------------------------------------------------
  alpha Z        PSCENC =       302.72888638
  Ewald energy   TEWEN  =      2724.52832679
  -Hartree energ DENC   =    -31884.37397855
  -exchange      EXHF   =         0.00000000
  -V(xc)+E(xc)   XCENC  =     -1055.13215627
  PAW double counting   =     37626.47041193   -34661.20045854
  entropy T*S    EENTRO =        -0.00646181
  eigenvalues    EBANDS =      -560.24163177
  atomic energy  EATOM  =     26752.82261666
  Solvation  Ediel_sol  =         0.00000000
  ---------------------------------------------------
  free energy    TOTEN  =      -754.40444518 eV

  energy without entropy =     -754.39798337  energy(sigma->0) =     -754.40229124


--------------------------------------------------------------------------------------------------------




----------------------------------------- Iteration    1(  10)  ---------------------------------------


    POTLOK:  cpu time    0.1415: real time    0.1453
    SETDIJ:  cpu time    0.0144: real time    0.0146
    EDDIAG:  cpu time    1.0536: real time    1.0678
  RMM-DIIS:  cpu time    3.1678: real time    3.2121
    ORTHCH:  cpu time    0.2586: real time    0.2622
       DOS:  cpu time    0.0010: real time    0.0010
    CHARGE:  cpu time    0.4347: real time    0.4402
    MIXING:  cpu time    0.0049: real time    0.0049
    --------------------------------------------
      LOOP:  cpu time    5.0786: real time    5.1535

 eigenvalue-minimisations  :  1482
 total energy-change (2. order) :-0.9000976E+00  (-0.7233939E+00)
 number of electron     588.0000050 magnetization 
 augmentation part       27.1766848 magnetization 

 Broyden mixing:
  rms(total) = 0.20288E+01    rms(broyden)= 0.20226E+01
  rms(prec ) = 0.26771E+01
  weight for this iteration     100.00

 eigenvalues of (default mixing * dielectric matrix)
  average eigenvalue GAMMA=   0.7604
  1.7663  1.0359  0.3748  0.3748  0.2500

 Free energy of the ion-electron system (eV)
  ---------------------------------------------------
  alpha Z        PSCENC =       302.72888638
  Ewald energy   TEWEN  =      2724.52832679
  -Hartree energ DENC   =    -31959.36793198
  -exchange      EXHF   =         0.00000000
  -V(xc)+E(xc)   XCENC  =     -1050.74864611
  PAW double counting   =     40365.39918559   -37399.57754354
  entropy T*S    EENTRO =        -0.02500964
  eigenvalues    EBANDS =      -491.06442694
  atomic energy  EATOM  =     26752.82261666
  Solvation  Ediel_sol  =         0.00000000
  ---------------------------------------------------
  free energy    TOTEN  =      -755.30454278 eV

  energy without entropy =     -755.27953314  energy(sigma->0) =     -755.29620624


--------------------------------------------------------------------------------------------------------




----------------------------------------- Iteration    1(  11)  ---------------------------------------


    POTLOK:  cpu time    0.1400: real time    0.1428
    SETDIJ:  cpu time    0.0148: real time    0.0148
    EDDIAG:  cpu time    1.0538: real time    1.0683
  RMM-DIIS:  cpu time    3.2280: real time    3.2802
    ORTHCH:  cpu time    0.2544: real time    0.2572
       DOS:  cpu time    0.0011: real time    0.0011
    CHARGE:  cpu time    0.4308: real time    0.4365
    MIXING:  cpu time    0.0047: real time    0.0047
    --------------------------------------------
      LOOP:  cpu time    5.1297: real time    5.2122

 eigenvalue-minimisations  :  1483
 total energy-change (2. order) : 0.9991579E+00  (-0.2410237E+00)
 number of electron     588.0000052 magnetization 
 augmentation part       27.7328195 magnetization 

 Broyden mixing:
  rms(total) = 0.17069E+01    rms(broyden)= 0.17027E+01
  rms(prec ) = 0.21914E+01
  weight for this iteration     100.00

 eigenvalues of (default mixing * dielectric matrix)
  average eigenvalue GAMMA=   0.7816
  2.0927  1.0126  0.5503  0.5503  0.3303  0.1532

 Free energy of the ion-electron system (eV)
  ---------------------------------------------------
  alpha Z        PSCENC =       302.72888638
  Ewald energy   TEWEN  =      2724.52832679
  -Hartree energ DENC   =    -31950.99544190
  -exchange      EXHF   =         0.00000000
  -V(xc)+E(xc)   XCENC  =     -1050.54044949
  PAW double counting   =     41059.75110185   -38093.59084590
  entropy T*S    EENTRO =        -0.01985439
  eigenvalues    EBANDS =      -498.98972489
  atomic energy  EATOM  =     26752.82261666
  Solvation  Ediel_sol  =         0.00000000
  ---------------------------------------------------
  free energy    TOTEN  =      -754.30538488 eV

  energy without entropy =     -754.28553049  energy(sigma->0) =     -754.29876675


--------------------------------------------------------------------------------------------------------




----------------------------------------- Iteration    1(  12)  ---------------------------------------


    POTLOK:  cpu time    0.1415: real time    0.1456
    SETDIJ:  cpu time    0.0144: real time    0.0147
    EDDIAG:  cpu time    1.0528: real time    1.0666
  RMM-DIIS:  cpu time    3.2421: real time    3.2883
    ORTHCH:  cpu time    0.2593: real time    0.2630
       DOS:  cpu time    0.0010: real time    0.0010
    CHARGE:  cpu time    0.4410: real time    0.4458
    MIXING:  cpu time    0.0057: real time    0.0059
    --------------------------------------------
      LOOP:  cpu time    5.1595: real time    5.2362

 eigenvalue-minimisations  :  1480
 total energy-change (2. order) : 0.1891239E+01  (-0.2479664E+00)
 number of electron     588.0000051 magnetization 
 augmentation part       28.4710876 magnetization 

 Broyden mixing:
  rms(total) = 0.48112E+00    rms(broyden)= 0.47478E+00
  rms(prec ) = 0.59018E+00
  weight for this iteration     100.00

 eigenvalues of (default mixing * dielectric matrix)
  average eigenvalue GAMMA=   0.7367
  2.1949  1.0116  0.5731  0.5731  0.3582  0.2922  0.1540

 Free energy of the ion-electron system (eV)
  ---------------------------------------------------
  alpha Z        PSCENC =       302.72888638
  Ewald energy   TEWEN  =      2724.52832679
  -Hartree energ DENC   =    -31953.03303288
  -exchange      EXHF   =         0.00000000
  -V(xc)+E(xc)   XCENC  =     -1050.42354014
  PAW double counting   =     41803.12212605   -38836.59625380
  entropy T*S    EENTRO =         0.00656389
  eigenvalues    EBANDS =      -495.56983870
  atomic energy  EATOM  =     26752.82261666
  Solvation  Ediel_sol  =         0.00000000
  ---------------------------------------------------
  free energy    TOTEN  =      -752.41414575 eV

  energy without entropy =     -752.42070963  energy(sigma->0) =     -752.41633371


--------------------------------------------------------------------------------------------------------




----------------------------------------- Iteration    1(  13)  ---------------------------------------


    POTLOK:  cpu time    0.1419: real time    0.1469
    SETDIJ:  cpu time    0.0146: real time    0.0155
    EDDIAG:  cpu time    1.0612: real time    1.0845
  RMM-DIIS:  cpu time    3.2499: real time    3.3357
    ORTHCH:  cpu time    0.2531: real time    0.2580
       DOS:  cpu time    0.0009: real time    0.0012
    CHARGE:  cpu time    0.4145: real time    0.4241
    MIXING:  cpu time    0.0045: real time    0.0047
    --------------------------------------------
      LOOP:  cpu time    5.1429: real time    5.2769

 eigenvalue-minimisations  :  1489
 total energy-change (2. order) : 0.1638364E+00  (-0.8387481E-01)
 number of electron     588.0000049 magnetization 
 augmentation part       28.6402665 magnetization 

 Broyden mixing:
  rms(total) = 0.34812E+00    rms(broyden)= 0.34580E+00
  rms(prec ) = 0.45955E+00
  weight for this iteration     100.00

 eigenvalues of (default mixing * dielectric matrix)
  average eigenvalue GAMMA=   0.7324
  2.2973  0.9102  0.8755  0.4415  0.4415  0.4082  0.3300  0.1552

 Free energy of the ion-electron system (eV)
  ---------------------------------------------------
  alpha Z        PSCENC =       302.72888638
  Ewald energy   TEWEN  =      2724.52832679
  -Hartree energ DENC   =    -31949.62417260
  -exchange      EXHF   =         0.00000000
  -V(xc)+E(xc)   XCENC  =     -1050.13227421
  PAW double counting   =     42068.15065892   -39101.50175499
  entropy T*S    EENTRO =        -0.01600178
  eigenvalues    EBANDS =      -499.20659452
  atomic energy  EATOM  =     26752.82261666
  Solvation  Ediel_sol  =         0.00000000
  ---------------------------------------------------
  free energy    TOTEN  =      -752.25030934 eV

  energy without entropy =     -752.23430756  energy(sigma->0) =     -752.24497542


--------------------------------------------------------------------------------------------------------




----------------------------------------- Iteration    1(  14)  ---------------------------------------


    POTLOK:  cpu time    0.1395: real time    0.1471
    SETDIJ:  cpu time    0.0145: real time    0.0152
    EDDIAG:  cpu time    1.0190: real time    1.0781
  RMM-DIIS:  cpu time    3.1378: real time    3.3209
    ORTHCH:  cpu time    0.2488: real time    0.2635
       DOS:  cpu time    0.0009: real time    0.0009
    CHARGE:  cpu time    0.3959: real time    0.4180
    MIXING:  cpu time    0.0056: real time    0.0059
    --------------------------------------------
      LOOP:  cpu time    4.9641: real time    5.2554

 eigenvalue-minimisations  :  1472
 total energy-change (2. order) : 0.8352770E-01  (-0.2530011E-01)
 number of electron     588.0000049 magnetization 
 augmentation part       28.5621419 magnetization 

 Broyden mixing:
  rms(total) = 0.26447E+00    rms(broyden)= 0.26391E+00
  rms(prec ) = 0.33909E+00
  weight for this iteration     100.00

 eigenvalues of (default mixing * dielectric matrix)
  average eigenvalue GAMMA=   0.7512
  2.3271  1.0789  1.0789  0.4914  0.4914  0.5248  0.3364  0.2765  0.1553

 Free energy of the ion-electron system (eV)
  ---------------------------------------------------
  alpha Z        PSCENC =       302.72888638
  Ewald energy   TEWEN  =      2724.52832679
  -Hartree energ DENC   =    -31955.73140348
  -exchange      EXHF   =         0.00000000
  -V(xc)+E(xc)   XCENC  =     -1049.65425235
  PAW double counting   =     42186.66212856   -39220.00402236
  entropy T*S    EENTRO =        -0.00798638
  eigenvalues    EBANDS =      -493.51107547
  atomic energy  EATOM  =     26752.82261666
  Solvation  Ediel_sol  =         0.00000000
  ---------------------------------------------------
  free energy    TOTEN  =      -752.16678164 eV

  energy without entropy =     -752.15879526  energy(sigma->0) =     -752.16411951


--------------------------------------------------------------------------------------------------------




----------------------------------------- Iteration    1(  15)  ---------------------------------------


    POTLOK:  cpu time    0.1408: real time    0.1491
    SETDIJ:  cpu time    0.0142: real time    0.0148
    EDDIAG:  cpu time    1.0311: real time    1.0866
  RMM-DIIS:  cpu time    3.1137: real time    3.2553
    ORTHCH:  cpu time    0.2515: real time    0.2594
       DOS:  cpu time    0.0008: real time    0.0008
    CHARGE:  cpu time    0.4301: real time    0.4457
    MIXING:  cpu time    0.0053: real time    0.0053
    --------------------------------------------
      LOOP:  cpu time    4.9900: real time    5.2246

 eigenvalue-minimisations  :  1436
 total energy-change (2. order) : 0.4265066E-01  (-0.6027672E-02)
 number of electron     588.0000049 magnetization 
 augmentation part       28.5269500 magnetization 

 Broyden mixing:
  rms(total) = 0.20353E+00    rms(broyden)= 0.20311E+00
  rms(prec ) = 0.26821E+00
  weight for this iteration     100.00

 eigenvalues of (default mixing * dielectric matrix)
  average eigenvalue GAMMA=   0.7606
  2.3253  1.4030  0.9527  0.6509  0.5474  0.5474  0.4260  0.2992  0.2992  0.1555

 Free energy of the ion-electron system (eV)
  ---------------------------------------------------
  alpha Z        PSCENC =       302.72888638
  Ewald energy   TEWEN  =      2724.52832679
  -Hartree energ DENC   =    -31957.92481205
  -exchange      EXHF   =         0.00000000
  -V(xc)+E(xc)   XCENC  =     -1049.35012910
  PAW double counting   =     42162.22633948   -39195.58217975
  entropy T*S    EENTRO =        -0.01877889
  eigenvalues    EBANDS =      -491.55440052
  atomic energy  EATOM  =     26752.82261666
  Solvation  Ediel_sol  =         0.00000000
  ---------------------------------------------------
  free energy    TOTEN  =      -752.12413098 eV

  energy without entropy =     -752.10535209  energy(sigma->0) =     -752.11787135


--------------------------------------------------------------------------------------------------------




----------------------------------------- Iteration    1(  16)  ---------------------------------------


    POTLOK:  cpu time    0.1374: real time    0.1429
    SETDIJ:  cpu time    0.0144: real time    0.0147
    EDDIAG:  cpu time    1.0244: real time    1.0660
  RMM-DIIS:  cpu time    2.8682: real time    2.9856
    ORTHCH:  cpu time    0.2497: real time    0.2593
       DOS:  cpu time    0.0008: real time    0.0008
    CHARGE:  cpu time    0.4254: real time    0.4410
    MIXING:  cpu time    0.0053: real time    0.0053
    --------------------------------------------
[...]
   0.332E+02 0.331E+02 0.376E+03   -.340E+02 -.337E+02 -.376E+03   0.710E+00 0.732E+00 -.527E+00   0.140E-03 -.474E-01 -.221E+00
   0.737E+01 -.421E+02 0.381E+03   -.789E+01 0.431E+02 -.381E+03   0.607E+00 -.820E+00 -.604E+00   -.977E-03 -.587E-02 -.190E+00
   -.425E+02 0.165E+01 0.392E+03   0.433E+02 -.226E+01 -.391E+03   -.526E+00 0.733E+00 -.148E+01   -.540E-02 -.513E-02 -.188E+00
   -.280E+02 0.291E+02 0.393E+03   0.293E+02 -.289E+02 -.393E+03   -.131E+01 -.343E+00 -.613E+00   0.648E-02 -.396E-01 -.218E+00
   0.196E+02 0.382E+02 0.411E+03   -.207E+02 -.389E+02 -.410E+03   0.117E+01 0.619E+00 -.149E+01   0.139E-02 -.480E-01 -.251E+00
   -.332E+01 -.307E+02 0.385E+03   0.277E+01 0.319E+02 -.385E+03   0.707E+00 -.109E+01 -.616E+00   -.649E-02 -.429E-01 -.209E+00
   0.369E+02 -.967E+01 -.211E+03   -.581E+02 0.743E+00 0.211E+03   0.215E+02 0.113E+02 -.823E+00   -.310E-01 0.951E-01 -.150E+00
   0.282E+02 -.887E+02 -.177E+03   -.243E+02 0.111E+03 0.179E+03   -.245E+01 -.235E+02 -.266E+01   -.112E-01 0.156E+00 -.229E+00
   0.263E+02 0.878E+01 -.152E+03   -.535E+01 -.228E+02 0.154E+03   -.242E+02 0.124E+02 -.371E+01   -.114E+00 0.112E+00 -.352E+00
   -.650E+02 0.263E+02 -.246E+03   0.833E+02 -.403E+02 0.247E+03   -.204E+02 0.130E+02 -.157E+01   -.360E-01 -.828E-01 -.155E+00
   -.101E+02 0.504E+02 -.207E+03   -.123E+02 -.590E+02 0.209E+03   0.231E+02 0.108E+02 -.189E+01   -.827E-02 -.125E+00 -.220E+00
   0.155E+02 -.214E+02 -.231E+03   -.125E+02 0.433E+02 0.232E+03   -.979E+00 -.230E+02 -.168E+01   -.114E-01 -.435E-01 -.243E+00
   -.568E+02 0.571E+02 -.119E+03   0.751E+02 -.698E+02 0.121E+03   -.208E+02 0.107E+02 -.321E+01   0.332E-01 0.801E-01 -.160E+00
   0.633E+02 -.377E+02 -.114E+03   -.851E+02 0.274E+02 0.117E+03   0.223E+02 0.136E+02 -.520E+01   0.106E-01 0.300E-01 -.134E+00
   -.789E+02 -.115E+03 -.188E+03   0.804E+02 0.138E+03 0.189E+03   0.133E+01 -.237E+02 -.918E+00   -.254E-02 0.684E-02 -.126E+00
   0.921E+02 0.471E+02 -.568E+03   -.102E+03 -.458E+02 0.563E+03   0.103E+02 -.514E+01 0.586E+01   0.345E-01 0.143E+00 -.253E-01
   0.117E+02 0.474E+02 -.215E+03   0.799E+01 -.617E+02 0.216E+03   -.223E+02 0.133E+02 -.188E+01   -.378E-02 0.965E-02 -.133E+00
   -.336E+02 -.500E+02 -.185E+03   0.362E+02 0.734E+02 0.186E+03   -.383E+00 -.246E+02 -.588E+00   0.146E-01 -.576E-01 -.146E+00
   0.104E+03 0.364E+02 -.242E+03   -.125E+03 -.448E+02 0.241E+03   0.213E+02 0.106E+02 0.146E+01   0.216E-01 -.924E-01 -.182E+00
   -.702E+02 0.815E+02 -.216E+03   0.877E+02 -.957E+02 0.217E+03   -.194E+02 0.135E+02 -.980E+00   0.689E-01 -.377E-02 -.288E+00
   0.214E+02 0.143E+02 -.123E+03   -.446E+02 -.226E+02 0.125E+03   0.243E+02 0.998E+01 -.291E+01   0.128E+00 0.995E-01 -.348E+00
   -.514E+02 -.432E+02 -.190E+03   0.540E+02 0.661E+02 0.190E+03   -.486E+00 -.245E+02 -.141E+00   0.152E-02 0.726E-01 -.208E+00
   -.509E+02 0.305E+02 -.579E+03   0.419E+02 -.381E+02 0.593E+03   0.880E+01 0.795E+01 -.150E+02   0.123E+00 0.145E+00 -.137E-01
   0.129E+03 -.270E+02 -.568E+03   -.144E+03 0.161E+02 0.567E+03   0.137E+02 0.140E+02 0.256E+01   0.246E-01 -.643E-02 -.829E-02
   0.512E+02 0.436E+02 -.298E+03   -.469E+02 -.454E+02 0.299E+03   -.440E+01 0.235E+01 -.169E+01   -.611E-02 -.545E+00 0.465E+00
   0.233E+03 -.249E+02 -.554E+03   -.272E+03 0.148E+02 0.570E+03   0.334E+02 0.100E+02 -.153E+02   -.581E+00 -.244E+00 0.148E-01
   -.281E+03 -.457E+02 -.541E+03   0.326E+03 0.691E+02 0.550E+03   -.396E+02 -.229E+02 -.786E+01   0.182E+00 -.172E+00 0.716E-01
   0.186E+03 0.475E+02 -.513E+03   -.187E+03 -.441E+02 0.516E+03   -.111E+01 -.348E+01 -.931E+00   -.768E-01 -.889E-01 -.272E-01
   -.599E+02 -.519E+02 -.659E+02   0.623E+02 0.746E+02 0.680E+02   -.187E+00 -.239E+02 -.396E+01   -.132E-01 -.119E+00 -.431E+00
   0.135E+03 -.110E+02 -.146E+03   -.155E+03 0.158E+01 0.146E+03   0.202E+02 0.123E+02 -.220E+00   -.625E-01 -.338E-01 -.268E+00
   -.249E+01 0.109E+03 -.824E+02   0.229E+02 -.123E+03 0.853E+02   -.237E+02 0.121E+02 -.509E+01   0.408E-02 -.966E-01 -.232E+00
   -.175E+03 0.107E+03 -.510E+03   0.179E+03 -.120E+03 0.504E+03   -.106E+00 0.143E+02 0.783E+01   0.210E-03 -.294E+00 -.898E-01
   -.191E+02 -.398E+02 -.219E+03   0.171E+02 0.402E+02 0.197E+03   0.202E+01 -.470E+00 0.222E+02   -.302E-01 0.384E-01 0.541E+00
   -.134E+03 -.153E+03 -.589E+03   0.155E+03 0.157E+03 0.597E+03   -.223E+02 -.329E+01 -.839E+01   0.109E-01 0.856E-02 -.225E-01
   -.217E+02 0.340E+02 -.149E+03   0.219E+02 -.342E+02 0.127E+03   -.255E+00 0.339E+00 0.214E+02   0.143E-01 -.148E+00 0.369E+00
   0.449E+02 -.127E+03 -.538E+03   -.506E+02 0.112E+03 0.546E+03   0.493E+01 0.197E+02 -.720E+01   -.296E-01 0.515E+00 -.922E-01
   -.108E+03 -.140E+02 -.570E+03   0.103E+03 0.182E+02 0.572E+03   0.674E+01 -.410E+01 -.149E+01   0.162E-01 0.706E-01 -.358E-01
   -.889E+00 0.195E+03 -.545E+03   0.160E+02 -.203E+03 0.537E+03   -.188E+02 0.437E+01 0.719E+01   0.417E-01 -.176E+00 -.483E-01
 -----------------------------------------------------------------------------------------------
   0.762E+01 -.385E+02 0.356E+02   0.480E-13 0.568E-13 0.512E-11   -.729E+01 0.392E+02 -.290E+02   -.350E+00 -.727E+00 -.668E+01
 
 
 POSITION                                       TOTAL-FORCE (eV/Angst)
 -----------------------------------------------------------------------------------
      7.02360      9.89091     13.08926        -0.031281      0.170974      0.241035
      0.00000     12.32390     13.10064        -0.125921     -0.082466      0.037867
      1.40472      9.89091     13.08926        -0.129679      0.038390     -0.037395
      5.61888     12.32390     13.10064         0.093742     -0.062680     -0.193531
      4.21416      9.89091     13.08926         0.017155      0.042810     -0.028845
      2.80944     12.32390     13.10064        -0.045461      0.136661      0.195718
      5.73344     12.16521      1.43616         0.021093     -0.012533      0.102435
      0.11457     12.16521      3.12666         0.403959     -0.146989     -1.389773
      1.51928      0.00000      1.43616         0.014480      0.041740      0.289626
      4.32872      0.00000      3.12666        -0.439329      0.272478     -1.990434
      5.73344      2.43304      1.43616         0.006374     -0.065469      0.099833
      1.51928      4.86606      1.43616         0.165010      0.000946      0.248938
      4.32872      4.86606      3.12666        -0.366807     -0.082710     -1.301386
      0.11457      2.43304      3.12666         0.396360     -0.097362     -1.650367
      5.73344      7.29910      1.43616         0.014125     -0.117268      0.087553
      1.51928      9.73212      1.43616        -0.019987      0.055049      0.196428
      4.32872      9.73212      3.12666        -0.139868      0.110361     -1.998434
      0.11457      7.29910      3.12666         0.264532     -0.101436     -2.148534
      0.11457      2.43304      5.41885         2.403266     -1.913811      5.240921
      7.13816      4.86606      3.61778        -0.246754      0.145647     -3.493087
      4.32872      9.73212      5.41885         0.475968      0.121188      4.762210
      2.92401      7.29910      3.61778        -0.125728     -0.696314     -3.358231
      4.32872      4.86606      5.41885        -0.605722     -0.118289      6.192134
      2.92401      2.43304      5.91004        -1.420205     -0.947041      4.311447
      2.92401      2.43304      3.61778        -0.038209      0.125128     -2.989302
      0.11457      7.29910      5.41885         2.280858     -0.017260      5.898199
      4.32872      0.00000      5.41885        -0.716461      1.304113      4.794772
      5.73151      2.28602      7.19631         0.000538      0.074716     -0.018343
      7.06984      5.14464      8.53979         0.015723     -0.001402      0.026483
      2.92401      7.29910      5.91004         0.548034     -1.465901      2.303024
      0.52893     10.67822      7.77341         0.122493     -0.031098      0.158510
      0.11457     12.16521      5.41885         1.359466     -0.272716      4.336659
      2.92401     12.16521      5.91004        -1.827176     -0.070887      3.911700
      2.75891      5.43466      7.67567         0.001753     -0.034252     -0.007743
      7.13816      9.73214      5.91004         1.527004      0.224001      2.926146
      7.13816      9.73214      3.61778         0.513036      0.543792     -3.409411
      2.92401     12.16521      3.61778        -0.762701      0.166740     -3.346512
      7.13816      0.00000      3.61778         0.424070      0.020770     -3.432389
      7.13816      4.86606      5.91004        -1.290902     -0.739537      2.846212
      2.92401     12.16521      0.94496        -0.192611      0.225106      0.782627
      2.92401      2.43304      0.94496        -0.188623      0.115673      0.607970
      2.92401      7.29910      0.94496        -0.289355      0.088219      0.658901
      7.13816      4.86606      0.94496        -0.196210      0.107653      0.573056
      7.13816      9.73214      0.94496        -0.113160      0.170206      0.651668
      7.13816      0.00000      0.94496        -0.088927      0.311502      0.650762
      6.03357     12.35603      7.59514         0.014606      0.005798     -0.128035
      1.40472     13.14550     10.77725        -0.031162     -0.555593     -0.301730
      7.13816      0.00000      5.91004         1.450074     -0.008410      2.390983
      7.03591      0.37773      8.47366         0.003798     -0.018862     -0.007936
      5.61888      0.98037     10.72023        -0.367014      0.103881     -0.301935
      0.00000     10.71249     10.76585         0.559554     -0.057931     -0.788414
      2.80944      0.98037     10.72023         0.511771      0.374301     -0.105126
      2.80944      5.84643     10.74303         0.010858     -0.224745     -0.833323
      5.61888      5.84643     10.74303        -0.271601      0.122297     -0.303644
      1.40472      3.41341     10.73176        -0.046872      0.271335      0.018243
      1.40472      8.27947     10.75441        -0.308938     -0.175165     -0.180423
      7.02360      8.27947     10.75441         0.049136     -0.003333     -0.149750
      5.61888     10.71249     10.76585         0.015583      0.334941     -0.702216
      2.80944     10.71249     10.76585         0.100968      0.398330     -0.147273
      7.02360      3.41341     10.73176         0.021073     -0.240118     -0.389563
      4.21416      3.41341     10.73176        -0.010789     -0.020092     -0.102162
      0.00000      5.84643     10.74303         0.353786      0.209479     -0.076043
      4.21416      8.27947     10.75441         0.288193     -0.147122     -0.230024
      4.21416     13.14550     10.77725         0.159422     -0.174974      0.093842
      7.02360     13.14550     10.77725        -0.512489     -0.397197     -0.788725
      0.00000     13.93540     15.43532         0.361479     -0.039038     -0.442884
      4.21416     11.50230     15.42404         0.478462     -0.274233     -0.226096
      0.00000      9.06931     15.41267         0.531535     -0.078786     -0.210441
      4.21416      6.63627     15.40124         0.508083     -0.067050     -0.269443
      0.00000      4.20325     15.38987         0.435888     -0.142805     -0.158047
      4.21416      1.77021     15.37844         0.319759     -0.140299     -0.085051
      5.61888     13.93540     15.43532        -0.151291     -0.101052     -0.106548
      1.40472     11.50230     15.42404        -0.243325     -0.317893     -0.047089
      5.61888      9.06931     15.41267        -0.233540     -0.119842     -0.104321
      1.40472      6.63627     15.40124        -0.188456     -0.224884      0.178981
      0.00000      0.98037     10.72023         0.078221      0.212634     -0.358247
      5.61888      4.20325     15.38987        -0.086388     -0.158344      0.107107
      1.40472      1.77021     15.37844        -0.205303     -0.155053      0.172529
      2.80944     13.93540     15.43532        -0.081252      0.401164      0.050030
      7.02360     11.50230     15.42404        -0.203805      0.131761      0.164002
      2.80944      9.06931     15.41267        -0.189317      0.181374      0.203170
      7.02360      6.63627     15.40124        -0.189188      0.160489      0.106024
      2.80944      4.20325     15.38987        -0.257315      0.163845      0.408128
      4.21416      0.15878     13.04364        -0.248379      0.061968      0.134059
      7.02360      0.15878     13.04364        -0.014716     -0.093522      0.320909
      1.40472      0.15878     13.04364         0.189068      0.015271      0.643963
      7.02360      1.77021     15.37844        -0.121390      0.113144      0.326095
      5.61888      2.59181     13.05507         0.024320     -0.037662     -0.026303
      0.00000      2.59181     13.05507        -0.036475      0.140019     -0.150037
      2.80944      2.59181     13.05507        -0.029271     -0.097073      0.063655
      7.02360      5.02485     13.06646         0.017194      0.149191     -0.078479
      1.40472      5.02485     13.06646         0.055215      0.058187     -0.109738
      5.61888      7.45787     13.07783         0.171747     -0.128311      0.266815
      0.00000      7.45787     13.07783        -0.069546     -0.105712     -0.123434
      4.21416      5.02485     13.06646        -0.062949      0.019162     -0.270154
      2.80944      7.45787     13.07783        -0.177609     -0.036891     -0.027249
      5.84801     13.85330      2.28137        -0.090993     -0.080883     -0.396849
      7.13816     11.22190      2.28137        -0.141017      0.046078     -0.622027
      4.21415     11.42030      2.28137         0.179000     -0.121828     -0.355693
      0.00000     13.85330      2.28137        -0.074821     -0.114740     -0.492589
      1.63386      1.68817      2.28137        -0.104288     -0.041052     -0.594389
      2.92401     13.65489      2.28137         0.205094     -0.069312     -0.519680
      5.84801      4.12120      2.28137         0.026388     -0.027613     -0.537893
      7.13816      1.48973      2.28137        -0.025674      0.113545     -0.461465
      4.21415      1.68818      2.28137         0.185785     -0.130157     -0.650110
      0.00000      4.12120      2.28137        -0.007361     -0.031071     -0.461740
      1.63386      6.55424      2.28137        -0.196384      0.058875     -0.482871
      2.92401      3.92276      2.28137        -0.005232      0.027645     -0.716430
      5.84801      8.98727      2.28137        -0.109078      0.007097     -0.325402
      7.13816      6.35579      2.28137         0.088158      0.147436     -0.376595
      4.21415      6.55424      2.28137         0.192638      0.124906     -0.678864
      0.00000      8.98727      2.28137        -0.050444     -0.239381     -0.372511
      1.63386     11.42030      2.28137         0.060560     -0.103496     -0.663672
      2.92401      8.78882      2.28137         0.151431      0.052600     -0.368851
      7.25273      3.17790      4.46307         0.256011      2.416077     -0.375198
      1.40472      3.17790      4.46307         1.398301     -1.077203     -1.206621
      0.11457      0.94331      4.46307        -3.364984     -1.427294     -1.368538
      4.32872      8.24241      4.46307        -2.218693     -1.108363     -0.267397
      3.03858     10.47700      4.46307         0.734081      2.152799     -0.629904
      5.61887     10.47700      4.46307         1.990458     -1.200971     -0.671597
      4.32872      3.37634      4.46307        -2.513494     -1.801993     -1.780408
      3.03858      5.61093      4.46307         0.455653      3.330617     -2.368940
      5.61887      5.61093      4.46307         2.740344     -1.145767     -0.625778
      2.89934      4.19028      6.45375         0.354817     -3.702937      1.193174
      0.11457      5.80937      4.46307        -2.596622     -0.947553     -0.649740
      1.40472      8.04397      4.46307         2.197513     -1.298571     -0.483629
      7.25273      8.04397      4.46307         0.101069      2.097605      0.354525
      4.32872     13.10850      4.46307        -1.885636     -0.749473     -0.285872
      3.03858      0.74487      4.46307         1.195216      1.781076     -1.414359
      5.61887      0.74487      4.46307         2.096913     -1.613204     -0.248708
      4.27604      1.31377      6.79656        -0.031241      0.452041     -1.191780
      1.56350      6.27123      6.56027        -0.706332      3.075372      0.669210
      6.23868     11.76947      9.30256        -0.147205      0.057823      0.068694
      0.54236     13.46920      6.80953        -6.231898     -0.398119      0.207579
      1.75333     13.82470      6.78406         6.057587      0.376880      0.596255
      7.40570     11.41300      6.65997        -2.250389     -0.088391      2.013536
      1.40472     12.91001      4.46307         2.202237     -1.281584     -2.317128
      7.25273     12.91001      4.46307        -0.199529      2.869750     -0.421765
      0.11457     10.67540      4.46307        -3.350646     -1.481123     -2.390948
      1.39672     11.27330      6.36805         3.630020      1.424198      1.683639
      1.45916      0.12787      9.85895         0.029936     -0.041705     -0.009330
      4.20564      6.24340      6.76887        -1.136566      1.498028      0.253315
      2.80607      9.09894      9.85767         0.000214     -0.001787     -0.021378
      1.56328      1.19410      6.40203        -0.886320      5.220337      0.463027
      5.59185      3.91638      6.50244         1.388334      0.153592      0.876019
      0.45021      9.30408      6.67313        -3.632287     -3.981823     -0.230094
 -----------------------------------------------------------------------------------
    total drift:                               -0.025533      0.000151     -0.093075


--------------------------------------------------------------------------------------------------------



  FREE ENERGIE OF THE ION-ELECTRON SYSTEM (eV)
  ---------------------------------------------------
  free  energy   TOTEN  =      -783.20611292 eV

  energy  without entropy=     -783.19838728  energy(sigma->0) =     -783.20353771
 
 d Force = 0.1404824E-02[-0.295E-03, 0.310E-02]  d Energy = 0.1197919E-02 0.207E-03
 d Force =-0.4241761E+01[-0.425E+01,-0.423E+01]  d Ewald  =-0.4241796E+01 0.353E-04


--------------------------------------------------------------------------------------------------------


    POTLOK:  cpu time    0.1525: real time    0.1537


--------------------------------------------------------------------------------------------------------




--------------------------------------------------------------------------------------------------------


  
 reached required accuracy - stopping structural energy minimisation
     LOOP+:  cpu time   23.3589: real time   23.4658
    4ORBIT:  cpu time    0.0000: real time    0.0000

 total amount of memory used by VASP on root node    88802. kBytes
========================================================================

   base      :      30000. kBytes
   nonlr-proj:      19668. kBytes
   fftplans  :       9736. kBytes
   grid      :      15178. kBytes
   one-center:        113. kBytes
   wavefun   :      14107. kBytes
 
  
  
 General timing and accounting informations for this job:
 ========================================================
  
                  Total CPU time used (sec):     2167.649
                            User time (sec):     2157.843
                          System time (sec):        9.807
                         Elapsed time (sec):     2242.121
  
                   Maximum memory used (kb):      315456.
                   Average memory used (kb):           0.
  
                          Minor page faults:      1879299
                          Major page faults:            0
                 Voluntary context switches:        20191
