<?xml version="1.0" encoding="ISO-8859-1"?>
<modeling>
 <generator>
  <i name="program" type="string">vasp </i>
  <i name="version" type="string">5.4.1  </i>
  <i name="subversion" type="string">05Feb16 (build Feb 01 2017 11:31:40) complex                          parallel </i>
  <i name="platform" type="string">IFC91_ompi </i>
  <i name="date" type="string">2021 07 07 </i>
  <i name="time" type="string">11:34:28 </i>
 </generator>
 <incar>
  <i type="string" name="SYSTEM">Al_Al2O3</i>
  <i type="string" name="PREC">accurate</i>
  <i type="string" name="ALGO"> Fast</i>
  <i type="int" name="NELM">   100</i>
  <i type="int" name="IBRION">     2</i>
  <i name="EDIFF">      0.00100000</i>
  <i type="int" name="NSW">   100</i>
  <i type="int" name="ISIF">     2</i>
  <i name="ENCUT">    400.00000000</i>
  <i type="string" name="LREAL"> Auto</i>
  <i type="int" name="ISMEAR">     1</i>
  <i name="SIGMA">      0.10000000</i>
  <i type="logical" name="LWAVE"> F  </i>
  <i type="logical" name="LCHARG"> F  </i>
  <v type="int" name="KPOINT_BSE">    -1     0     0     0</v>
  <i type="int" name="NELM">   100</i>
 </incar>
 <kpoints>
  <generation param="Auto">
   <i name="subdivisionlength">     20.00000000 </i>
   <v type="int" name="divisions">       2        1        1 </v>
   <v name="usershift">      0.00000000       0.00000000       0.00000000 </v>
   <v name="genvec1">      0.50000000       0.00000000       0.00000000 </v>
   <v name="genvec2">      0.00000000       1.00000000       0.00000000 </v>
   <v name="genvec3">      0.00000000       0.00000000       1.00000000 </v>
   <v name="shift">      0.00000000       0.00000000       0.00000000 </v>
  </generation>
  <varray name="kpointlist" >
   <v>       0.00000000       0.00000000       0.00000000 </v>
   <v>       0.50000000       0.00000000       0.00000000 </v>
  </varray>
  <varray name="weights" >
   <v>       0.50000000 </v>
   <v>       0.50000000 </v>
  </varray>
 </kpoints>
 <parameters>
  <separator name="general" >
   <i type="string" name="SYSTEM">Al_Al2O3</i>
   <i type="logical" name="LCOMPAT"> F  </i>
  </separator>
  <separator name="electronic" >
   <i type="string" name="PREC">accura</i>
   <i name="ENMAX">    400.00000000</i>
   <i name="ENAUG">    605.39200000</i>
   <i name="EDIFF">      0.00100000</i>
   <i type="int" name="IALGO">    68</i>
   <i type="int" name="IWAVPR">    11</i>
   <i type="int" name="NBANDS">   368</i>
   <i name="NELECT">    588.00000000</i>
   <i type="int" name="TURBO">     0</i>
   <i type="int" name="IRESTART">     0</i>
   <i type="int" name="NREBOOT">     0</i>
   <i type="int" name="NMIN">     0</i>
   <i name="EREF">      0.00000000</i>
   <separator name="electronic smearing" >
    <i type="int" name="ISMEAR">     1</i>
    <i name="SIGMA">      0.10000000</i>
    <i name="KSPACING">      0.50000000</i>
    <i type="logical" name="KGAMMA"> T  </i>
   </separator>
   <separator name="electronic projectors" >
    <i type="logical" name="LREAL"> T  </i>
    <v name="ROPT">     -0.00025000     -0.00025000</v>
    <i type="int" name="LMAXPAW">  -100</i>
    <i type="int" name="LMAXMIX">     2</i>
    <i type="logical" name="NLSPLINE"> F  </i>
   </separator>
   <separator name="electronic startup" >
    <i type="int" name="ISTART">     0</i>
    <i type="int" name="ICHARG">     2</i>
    <i type="int" name="INIWAV">     1</i>
   </separator>
   <separator name="electronic spin" >
    <i type="int" name="ISPIN">     1</i>
    <i type="logical" name="LNONCOLLINEAR"> F  </i>
    <v name="MAGMOM">      1.00000000      1.00000000      1.00000000      1.00000000      1.00000000      1.00000000      1.00000000      1.00000000      1.00000000      1.00000000      1.00000000      1.00000000      1.00000000      1.00000000      1.00000000      1.00000000      1.00000000      1.00000000      1.00000000      1.00000000
      1.00000000      1.00000000      1.00000000      1.00000000      1.00000000      1.00000000      1.00000000      1.00000000      1.00000000      1.00000000      1.00000000      1.00000000      1.00000000      1.00000000      1.00000000      1.00000000      1.00000000      1.00000000      1.00000000      1.00000000
      1.00000000      1.00000000      1.00000000      1.00000000      1.00000000      1.00000000      1.00000000      1.00000000      1.00000000      1.00000000      1.00000000      1.00000000      1.00000000      1.00000000      1.00000000      1.00000000      1.00000000      1.00000000      1.00000000      1.00000000
      1.00000000      1.00000000      1.00000000      1.00000000      1.00000000      1.00000000      1.00000000      1.00000000      1.00000000      1.00000000      1.00000000      1.00000000      1.00000000      1.00000000      1.00000000      1.00000000      1.00000000      1.00000000      1.00000000      1.00000000
      1.00000000      1.00000000      1.00000000      1.00000000      1.00000000      1.00000000      1.00000000      1.00000000      1.00000000      1.00000000      1.00000000      1.00000000      1.00000000      1.00000000      1.00000000      1.00000000      1.00000000      1.00000000      1.00000000      1.00000000
      1.00000000      1.00000000      1.00000000      1.00000000      1.00000000      1.00000000      1.00000000      1.00000000      1.00000000      1.00000000      1.00000000      1.00000000      1.00000000      1.00000000      1.00000000      1.00000000      1.00000000      1.00000000      1.00000000      1.00000000
      1.00000000      1.00000000      1.00000000      1.00000000      1.00000000      1.00000000      1.00000000      1.00000000      1.00000000      1.00000000      1.00000000      1.00000000      1.00000000      1.00000000      1.00000000      1.00000000      1.00000000      1.00000000      1.00000000      1.00000000
      1.00000000      1.00000000      1.00000000      1.00000000      1.00000000      1.00000000</v>
    <i name="NUPDOWN">     -1.00000000</i>
    <i type="logical" name="LSORBIT"> F  </i>
    <v name="SAXIS">      0.00000000      0.00000000      1.00000000</v>
    <i type="logical" name="LSPIRAL"> F  </i>
    <v name="QSPIRAL">      0.00000000      0.00000000      0.00000000</v>
    <i type="logical" name="LZEROZ"> F  </i>
   </separator>
   <separator name="electronic exchange-correlation" >
    <i type="logical" name="LASPH"> F  </i>
    <i type="logical" name="LMETAGGA"> F  </i>
   </separator>
   <separator name="electronic convergence" >
    <i type="int" name="NELM">   100</i>
    <i type="int" name="NELMDL">    -5</i>
    <i type="int" name="NELMIN">     2</i>
    <i name="ENINI">    400.00000000</i>
    <separator name="electronic convergence detail" >
     <i type="logical" name="LDIAG"> T  </i>
     <i type="logical" name="LSUBROT"> F  </i>
     <i name="WEIMIN">      0.00100000</i>
     <i name="EBREAK">      0.00000068</i>
     <i name="DEPER">      0.30000000</i>
     <i type="int" name="NRMM">     4</i>
     <i name="TIME">      0.40000000</i>
    </separator>
   </separator>
   <separator name="electronic mixer" >
    <i name="AMIX">      0.40000000</i>
    <i name="BMIX">      1.00000000</i>
    <i name="AMIN">      0.10000000</i>
    <i name="AMIX_MAG">      1.60000000</i>
    <i name="BMIX_MAG">      1.00000000</i>
    <separator name="electronic mixer details" >
     <i type="int" name="IMIX">     4</i>
     <i type="logical" name="MIXFIRST"> F  </i>
     <i type="int" name="MAXMIX">   -45</i>
     <i name="WC">    100.00000000</i>
     <i type="int" name="INIMIX">     1</i>
     <i type="int" name="MIXPRE">     1</i>
     <i type="int" name="MREMOVE">     5</i>
    </separator>
   </separator>
   <separator name="electronic dipolcorrection" >
    <i type="logical" name="LDIPOL"> F  </i>
    <i type="logical" name="LMONO"> F  </i>
    <i type="int" name="IDIPOL">     0</i>
    <i name="EPSILON">      1.00000000</i>
    <v name="DIPOL">   -100.00000000   -100.00000000   -100.00000000</v>
    <i name="EFIELD">      0.00000000</i>
   </separator>
  </separator>
  <separator name="grids" >
   <i type="int" name="NGX">    56</i>
   <i type="int" name="NGY">    96</i>
   <i type="int" name="NGZ">   108</i>
   <i type="int" name="NGXF">   112</i>
   <i type="int" name="NGYF">   192</i>
   <i type="int" name="NGZF">   216</i>
   <i type="logical" name="ADDGRID"> F  </i>
  </separator>
  <separator name="ionic" >
   <i type="int" name="NSW">   100</i>
   <i type="int" name="IBRION">     2</i>
   <i type="int" name="ISIF">     2</i>
   <i name="PSTRESS">      0.00000000</i>
   <i name="EDIFFG">      0.01000000</i>
   <i type="int" name="NFREE">     1</i>
   <i name="POTIM">      0.50000000</i>
   <i name="SMASS">     -3.00000000</i>
   <i name="SCALEE">      1.00000000</i>
  </separator>
  <separator name="ionic md" >
   <i name="TEBEG">      0.00010000</i>
   <i name="TEEND">      0.00010000</i>
   <i type="int" name="NBLOCK">     1</i>
   <i type="int" name="KBLOCK">   100</i>
   <i type="int" name="NPACO">   256</i>
   <i name="APACO">     16.00000000</i>
  </separator>
  <separator name="symmetry" >
   <i type="int" name="ISYM">     2</i>
   <i name="SYMPREC">      0.00001000</i>
  </separator>
  <separator name="dos" >
   <i type="logical" name="LORBIT"> F  </i>
   <v name="RWIGS">     -1.00000000     -1.00000000</v>
   <i type="int" name="NEDOS">   301</i>
   <i name="EMIN">     10.00000000</i>
   <i name="EMAX">    -10.00000000</i>
   <i name="EFERMI">      0.00000000</i>
  </separator>
  <separator name="writing" >
   <i type="int" name="NWRITE">     2</i>
   <i type="logical" name="LWAVE"> F  </i>
   <i type="logical" name="LCHARG"> F  </i>
   <i type="logical" name="LPARD"> F  </i>
   <i type="logical" name="LVTOT"> F  </i>
   <i type="logical" name="LVHAR"> F  </i>
   <i type="logical" name="LELF"> F  </i>
   <i type="logical" name="LOPTICS"> F  </i>
   <v name="STM">      0.00000000      0.00000000      0.00000000      0.00000000      0.00000000      0.00000000      0.00000000</v>
  </separator>
  <separator name="performance" >
   <i type="int" name="NPAR">     8</i>
   <i type="int" name="NSIM">     4</i>
   <i type="int" name="NBLK">    -1</i>
   <i type="logical" name="LPLANE"> T  </i>
   <i type="logical" name="LSCALAPACK"> T  </i>
   <i type="logical" name="LSCAAWARE"> F  </i>
   <i type="logical" name="LSCALU"> F  </i>
   <i type="logical" name="LASYNC"> F  </i>
   <i type="logical" name="LORBITALREAL"> F  </i>
  </separator>
  <separator name="miscellaneous" >
   <i type="int" name="IDIOT">     3</i>
   <i type="logical" name="LMUSIC"> F  </i>
   <v name="POMASS">     26.98100000     16.00000000</v>
   <v name="DARWINR">      0.00000000      0.00000000</v>
   <v name="DARWINV">      1.00000000      1.00000000</v>
   <i type="logical" name="LCORR"> T  </i>
  </separator>
  <i type="logical" name="GGA_COMPAT"> T  </i>
  <i type="logical" name="LBERRY"> F  </i>
  <i type="int" name="ICORELEVEL">     0</i>
  <i type="logical" name="LDAU"> F  </i>
  <i type="int" name="I_CONSTRAINED_M">     0</i>
  <separator name="electronic exchange-correlation" >
   <i type="string" name="GGA">--</i>
   <i type="int" name="VOSKOWN">     0</i>
   <i type="logical" name="LHFCALC"> F  </i>
   <i type="string" name="PRECFOCK"></i>
   <i type="logical" name="LSYMGRAD"> F  </i>
   <i type="logical" name="LHFONE"> F  </i>
   <i type="logical" name="LRHFCALC"> F  </i>
   <i type="logical" name="LTHOMAS"> F  </i>
   <i type="logical" name="LMODELHF"> F  </i>
   <i name="ENCUT4O">     -1.00000000</i>
   <i type="int" name="EXXOEP">     0</i>
   <i type="int" name="FOURORBIT">     0</i>
   <i name="AEXX">      0.00000000</i>
   <i name="HFALPHA">      0.00000000</i>
   <i name="MCALPHA">      0.00000000</i>
   <i name="ALDAX">      1.00000000</i>
   <i name="AGGAX">      1.00000000</i>
   <i name="ALDAC">      1.00000000</i>
   <i name="AGGAC">      1.00000000</i>
   <i type="int" name="NKREDX">     1</i>
   <i type="int" name="NKREDY">     1</i>
   <i type="int" name="NKREDZ">     1</i>
   <i type="logical" name="SHIFTRED"> F  </i>
   <i type="logical" name="ODDONLY"> F  </i>
   <i type="logical" name="EVENONLY"> F  </i>
   <i type="int" name="LMAXFOCK">     0</i>
   <i type="int" name="NMAXFOCKAE">     0</i>
   <i type="logical" name="LFOCKAEDFT"> F  </i>
   <i name="HFSCREEN">      0.00000000</i>
   <i name="HFSCREENC">      0.00000000</i>
   <i type="int" name="NBANDSGWLOW">     0</i>
  </separator>
  <separator name="vdW DFT" >
   <i type="logical" name="LUSE_VDW"> F  </i>
   <i name="Zab_VDW">     -0.84910000</i>
   <i name="PARAM1">      0.12340000</i>
   <i name="PARAM2">      1.00000000</i>
   <i name="PARAM3">      0.00000000</i>
  </separator>
  <separator name="model GW" >
   <i type="int" name="MODEL_GW">     0</i>
   <i name="MODEL_EPS0">      8.38506223</i>
   <i name="MODEL_ALPHA">      1.00000000</i>
  </separator>
  <separator name="linear response parameters" >
   <i type="logical" name="LEPSILON"> F  </i>
   <i type="logical" name="LRPA"> F  </i>
   <i type="logical" name="LNABLA"> F  </i>
   <i type="logical" name="LVEL"> F  </i>
   <i type="int" name="KINTER">     0</i>
   <i name="CSHIFT">      0.10000000</i>
   <i name="OMEGAMAX">     -1.00000000</i>
   <i name="DEG_THRESHOLD">      0.00200000</i>
  </separator>
  <separator name="orbital magnetization" >
   <i type="logical" name="NUCIND"> F  </i>
   <v name="MAGPOS">      0.00000000      0.00000000      0.00000000</v>
   <i type="logical" name="LNICSALL"> T  </i>
   <i type="logical" name="ORBITALMAG"> F  </i>
   <i type="logical" name="LMAGBLOCH"> F  </i>
   <i type="logical" name="LCHIMAG"> F  </i>
   <i type="logical" name="LGAUGE"> T  </i>
   <i type="int" name="MAGATOM">     0</i>
   <v name="MAGDIPOL">      0.00000000      0.00000000      0.00000000</v>
   <v name="AVECCONST">      0.00000000      0.00000000      0.00000000</v>
  </separator>
  <separator name="response functions" >
   <i type="logical" name="LADDER"> F  </i>
   <i type="logical" name="LFXC"> F  </i>
   <i type="logical" name="LHARTREE"> T  </i>
   <i type="int" name="IBSE">     0</i>
   <v type="int" name="KPOINT">    -1     0     0     0</v>
   <i type="logical" name="LTCTE"> F  </i>
   <i type="logical" name="LTETE"> F  </i>
   <i type="logical" name="LTRIPLET"> F  </i>
   <i type="logical" name="LFXCEPS"> F  </i>
   <i type="logical" name="LFXHEG"> F  </i>
   <i type="int" name="NATURALO">     0</i>
   <i type="logical" name="L2ORDER"> F  </i>
   <i type="logical" name="LUSEW"> F  </i>
   <i name="ENCUTGW">     -2.00000000</i>
   <i name="ENCUTGWSOFT">     -2.00000000</i>
   <i name="ENCUTLF">     -1.00000000</i>
   <i type="int" name="LMAXMP2">    -1</i>
   <i name="SCISSOR">      0.00000000</i>
   <i type="int" name="NOMEGA">     0</i>
   <i type="int" name="NOMEGAR">     0</i>
   <i type="int" name="NBANDSGW">    -1</i>
   <i type="int" name="NBANDSO">    -1</i>
   <i type="int" name="NBANDSV">    -1</i>
   <i type="int" name="NELM">   100</i>
   <i type="int" name="NELMHF">     1</i>
   <i type="int" name="DIM">     3</i>
   <i type="int" name="ANTIRES">     0</i>
   <i name="OMEGAMAX">    -30.00000000</i>
   <i name="OMEGAMIN">    -30.00000000</i>
   <i name="OMEGATL">   -200.00000000</i>
   <i type="int" name="OMEGAGRID">     0</i>
   <i name="CSHIFT">     -0.10000000</i>
   <i type="logical" name="SELFENERGY"> F  </i>
   <i type="logical" name="LSPECTRAL"> F  </i>
   <i type="logical" name="LSPECTRALGW"> F  </i>
   <i type="logical" name="LSINGLES"> F  </i>
   <i type="logical" name="LFERMIGW"> F  </i>
   <i type="logical" name="ODDONLYGW"> F  </i>
   <i type="logical" name="EVENONLYGW"> F  </i>
   <i type="int" name="NKREDLFX">     1</i>
   <i type="int" name="NKREDLFY">     1</i>
   <i type="int" name="NKREDLFZ">     1</i>
   <i type="int" name="MAXMEM">  1800</i>
   <i type="int" name="TELESCOPE">     0</i>
   <i type="int" name="TAUPAR">     1</i>
   <i type="int" name="OMEGAPAR">    -1</i>
   <i name="LAMBDA">      1.00000000</i>
  </separator>
  <separator name="External order field" >
   <i name="OFIELD_KAPPA">      0.00000000</i>
   <v name="OFIELD_K">      0.00000000      0.00000000      0.00000000</v>
   <i name="OFIELD_Q6_NEAR">      0.00000000</i>
   <i name="OFIELD_Q6_FAR">      0.00000000</i>
   <i name="OFIELD_A">      0.00000000</i>
  </separator>
  <separator name="solvation model" >
   <i type="logical" name="LSOL"> F  </i>
  </separator>
 </parameters>
 <atominfo>
  <atoms>     146 </atoms>
  <types>       2 </types>
  <array name="atoms" >
   <dimension dim="1">ion</dimension>
   <field type="string">element</field>
   <field type="int">atomtype</field>
   <set>
    <rc><c>Al</c><c>   1</c></rc>
    <rc><c>Al</c><c>   1</c></rc>
    <rc><c>Al</c><c>   1</c></rc>
    <rc><c>Al</c><c>   1</c></rc>
    <rc><c>Al</c><c>   1</c></rc>
    <rc><c>Al</c><c>   1</c></rc>
    <rc><c>Al</c><c>   1</c></rc>
    <rc><c>Al</c><c>   1</c></rc>
    <rc><c>Al</c><c>   1</c></rc>
    <rc><c>Al</c><c>   1</c></rc>
    <rc><c>Al</c><c>   1</c></rc>
    <rc><c>Al</c><c>   1</c></rc>
    <rc><c>Al</c><c>   1</c></rc>
    <rc><c>Al</c><c>   1</c></rc>
    <rc><c>Al</c><c>   1</c></rc>
    <rc><c>Al</c><c>   1</c></rc>
    <rc><c>Al</c><c>   1</c></rc>
    <rc><c>Al</c><c>   1</c></rc>
    <rc><c>Al</c><c>   1</c></rc>
    <rc><c>Al</c><c>   1</c></rc>
    <rc><c>Al</c><c>   1</c></rc>
    <rc><c>Al</c><c>   1</c></rc>
    <rc><c>Al</c><c>   1</c></rc>
    <rc><c>Al</c><c>   1</c></rc>
    <rc><c>Al</c><c>   1</c></rc>
    <rc><c>Al</c><c>   1</c></rc>
    <rc><c>Al</c><c>   1</c></rc>
    <rc><c>Al</c><c>   1</c></rc>
    <rc><c>Al</c><c>   1</c></rc>
    <rc><c>Al</c><c>   1</c></rc>
    <rc><c>Al</c><c>   1</c></rc>
    <rc><c>Al</c><c>   1</c></rc>
    <rc><c>Al</c><c>   1</c></rc>
    <rc><c>Al</c><c>   1</c></rc>
    <rc><c>Al</c><c>   1</c></rc>
    <rc><c>Al</c><c>   1</c></rc>
    <rc><c>Al</c><c>   1</c></rc>
    <rc><c>Al</c><c>   1</c></rc>
    <rc><c>Al</c><c>   1</c></rc>
    <rc><c>Al</c><c>   1</c></rc>
    <rc><c>Al</c><c>   1</c></rc>
    <rc><c>Al</c><c>   1</c></rc>
    <rc><c>Al</c><c>   1</c></rc>
    <rc><c>Al</c><c>   1</c></rc>
    <rc><c>Al</c><c>   1</c></rc>
    <rc><c>Al</c><c>   1</c></rc>
    <rc><c>Al</c><c>   1</c></rc>
    <rc><c>Al</c><c>   1</c></rc>
    <rc><c>Al</c><c>   1</c></rc>
    <rc><c>Al</c><c>   1</c></rc>
    <rc><c>Al</c><c>   1</c></rc>
    <rc><c>Al</c><c>   1</c></rc>
    <rc><c>Al</c><c>   1</c></rc>
    <rc><c>Al</c><c>   1</c></rc>
    <rc><c>Al</c><c>   1</c></rc>
    <rc><c>Al</c><c>   1</c></rc>
    <rc><c>Al</c><c>   1</c></rc>
    <rc><c>Al</c><c>   1</c></rc>
    <rc><c>Al</c><c>   1</c></rc>
    <rc><c>Al</c><c>   1</c></rc>
    <rc><c>Al</c><c>   1</c></rc>
    <rc><c>Al</c><c>   1</c></rc>
    <rc><c>Al</c><c>   1</c></rc>
    <rc><c>Al</c><c>   1</c></rc>
    <rc><c>Al</c><c>   1</c></rc>
    <rc><c>Al</c><c>   1</c></rc>
    <rc><c>Al</c><c>   1</c></rc>
    <rc><c>Al</c><c>   1</c></rc>
    <rc><c>Al</c><c>   1</c></rc>
    <rc><c>Al</c><c>   1</c></rc>
    <rc><c>Al</c><c>   1</c></rc>
    <rc><c>Al</c><c>   1</c></rc>
    <rc><c>Al</c><c>   1</c></rc>
    <rc><c>Al</c><c>   1</c></rc>
    <rc><c>Al</c><c>   1</c></rc>
    <rc><c>Al</c><c>   1</c></rc>
    <rc><c>Al</c><c>   1</c></rc>
    <rc><c>Al</c><c>   1</c></rc>
    <rc><c>Al</c><c>   1</c></rc>
    <rc><c>Al</c><c>   1</c></rc>
    <rc><c>Al</c><c>   1</c></rc>
    <rc><c>Al</c><c>   1</c></rc>
    <rc><c>Al</c><c>   1</c></rc>
    <rc><c>Al</c><c>   1</c></rc>
    <rc><c>Al</c><c>   1</c></rc>
    <rc><c>Al</c><c>   1</c></rc>
    <rc><c>Al</c><c>   1</c></rc>
    <rc><c>Al</c><c>   1</c></rc>
    <rc><c>Al</c><c>   1</c></rc>
    <rc><c>Al</c><c>   1</c></rc>
    <rc><c>Al</c><c>   1</c></rc>
    <rc><c>Al</c><c>   1</c></rc>
    <rc><c>Al</c><c>   1</c></rc>
    <rc><c>Al</c><c>   1</c></rc>
    <rc><c>Al</c><c>   1</c></rc>
    <rc><c>Al</c><c>   1</c></rc>
    <rc><c>O </c><c>   2</c></rc>
    <rc><c>O </c><c>   2</c></rc>
    <rc><c>O </c><c>   2</c></rc>
    <rc><c>O </c><c>   2</c></rc>
    <rc><c>O </c><c>   2</c></rc>
    <rc><c>O </c><c>   2</c></rc>
    <rc><c>O </c><c>   2</c></rc>
    <rc><c>O </c><c>   2</c></rc>
    <rc><c>O </c><c>   2</c></rc>
    <rc><c>O </c><c>   2</c></rc>
    <rc><c>O </c><c>   2</c></rc>
    <rc><c>O </c><c>   2</c></rc>
    <rc><c>O </c><c>   2</c></rc>
    <rc><c>O </c><c>   2</c></rc>
    <rc><c>O </c><c>   2</c></rc>
    <rc><c>O </c><c>   2</c></rc>
    <rc><c>O </c><c>   2</c></rc>
    <rc><c>O </c><c>   2</c></rc>
    <rc><c>O </c><c>   2</c></rc>
    <rc><c>O </c><c>   2</c></rc>
    <rc><c>O </c><c>   2</c></rc>
    <rc><c>O </c><c>   2</c></rc>
    <rc><c>O </c><c>   2</c></rc>
    <rc><c>O </c><c>   2</c></rc>
    <rc><c>O </c><c>   2</c></rc>
    <rc><c>O </c><c>   2</c></rc>
    <rc><c>O </c><c>   2</c></rc>
    <rc><c>O </c><c>   2</c></rc>
    <rc><c>O </c><c>   2</c></rc>
    <rc><c>O </c><c>   2</c></rc>
    <rc><c>O </c><c>   2</c></rc>
    <rc><c>O </c><c>   2</c></rc>
    <rc><c>O </c><c>   2</c></rc>
    <rc><c>O </c><c>   2</c></rc>
    <rc><c>O </c><c>   2</c></rc>
    <rc><c>O </c><c>   2</c></rc>
    <rc><c>O </c><c>   2</c></rc>
    <rc><c>O </c><c>   2</c></rc>
    <rc><c>O </c><c>   2</c></rc>
    <rc><c>O </c><c>   2</c></rc>
    <rc><c>O </c><c>   2</c></rc>
    <rc><c>O </c><c>   2</c></rc>
    <rc><c>O </c><c>   2</c></rc>
    <rc><c>O </c><c>   2</c></rc>
    <rc><c>O </c><c>   2</c></rc>
    <rc><c>O </c><c>   2</c></rc>
    <rc><c>O </c><c>   2</c></rc>
    <rc><c>O </c><c>   2</c></rc>
    <rc><c>O </c><c>   2</c></rc>
    <rc><c>O </c><c>   2</c></rc>
   </set>
  </array>
  <array name="atomtypes" >
   <dimension dim="1">type</dimension>
   <field type="int">atomspertype</field>
   <field type="string">element</field>
   <field>mass</field>
   <field>valence</field>
   <field type="string">pseudopotential</field>
   <set>
    <rc><c>  96</c><c>Al</c><c>     26.98100000</c><c>      3.00000000</c><c>  PAW_PBE Al 04Jan2001                  </c></rc>
    <rc><c>  50</c><c>O </c><c>     16.00000000</c><c>      6.00000000</c><c>  PAW_PBE O 08Apr2002                   </c></rc>
   </set>
  </array>
 </atominfo>
 <structure name="initialpos" >
  <crystal>
   <varray name="basis" >
    <v>       8.42830000       0.00000000       0.00000000 </v>
    <v>       0.00000000      14.59820000       0.00000000 </v>
    <v>       0.00000000       0.00000000      16.58321000 </v>
   </varray>
   <i name="volume">   2040.36514222 </i>
   <varray name="rec_basis" >
    <v>       0.11864789       0.00000000       0.00000000 </v>
    <v>       0.00000000       0.06850160       0.00000000 </v>
    <v>       0.00000000       0.00000000       0.06030196 </v>
   </varray>
  </crystal>
  <varray name="positions" >
   <v>       0.83333500       0.67754300       0.78930800 </v>
   <v>       0.00000000       0.84420700       0.78999400 </v>
   <v>       0.16666700       0.67754300       0.78930800 </v>
   <v>       0.66666800       0.84420700       0.78999400 </v>
   <v>       0.50000100       0.67754300       0.78930800 </v>
   <v>       0.33333400       0.84420700       0.78999400 </v>
   <v>       0.68026100       0.83333600       0.08660300 </v>
   <v>       0.01359400       0.83333600       0.18854400 </v>
   <v>       0.18025900       0.00000000       0.08660300 </v>
   <v>       0.51359300       0.00000000       0.18854400 </v>
   <v>       0.68026100       0.16666700       0.08660300 </v>
   <v>       0.18025900       0.33333300       0.08660300 </v>
   <v>       0.51359300       0.33333300       0.18854400 </v>
   <v>       0.01359400       0.16666700       0.18854400 </v>
   <v>       0.68026100       0.50000000       0.08660300 </v>
   <v>       0.18025900       0.66666600       0.08660300 </v>
   <v>       0.51359300       0.66666600       0.18854400 </v>
   <v>       0.01359400       0.50000000       0.18854400 </v>
   <v>       0.01359400       0.16666700       0.32676700 </v>
   <v>       0.84692800       0.33333300       0.21815900 </v>
   <v>       0.51359300       0.66666600       0.32676700 </v>
   <v>       0.34692800       0.50000000       0.21815900 </v>
   <v>       0.51359300       0.33333300       0.32676700 </v>
   <v>       0.34692800       0.16666700       0.35638700 </v>
   <v>       0.34692800       0.16666700       0.21815900 </v>
   <v>       0.01359400       0.50000000       0.32676700 </v>
   <v>       0.51359300       0.00000000       0.32676700 </v>
   <v>       0.66666800       0.17754300       0.53694800 </v>
   <v>       0.84013200       0.33877200       0.51384600 </v>
   <v>       0.34692800       0.50000000       0.35638700 </v>
   <v>       0.00679700       0.83877200       0.45458000 </v>
   <v>       0.01359400       0.83333600       0.32676700 </v>
   <v>       0.34692800       0.83333600       0.35638700 </v>
   <v>       0.16666700       0.34421000       0.53749700 </v>
   <v>       0.84692800       0.66666700       0.35638700 </v>
   <v>       0.84692800       0.66666700       0.21815900 </v>
   <v>       0.34692800       0.83333600       0.21815900 </v>
   <v>       0.84692800       0.00000000       0.21815900 </v>
   <v>       0.84692800       0.33333300       0.35638700 </v>
   <v>       0.34692800       0.83333600       0.05698300 </v>
   <v>       0.34692800       0.16666700       0.05698300 </v>
   <v>       0.34692800       0.50000000       0.05698300 </v>
   <v>       0.84692800       0.33333300       0.05698300 </v>
   <v>       0.84692800       0.66666700       0.05698300 </v>
   <v>       0.84692800       0.00000000       0.05698300 </v>
   <v>       0.66666800       0.84420700       0.53914600 </v>
   <v>       0.16666700       0.90048800       0.64988900 </v>
   <v>       0.84692800       0.00000000       0.35638700 </v>
   <v>       0.84013200       0.00543800       0.51329500 </v>
   <v>       0.66666800       0.06715700       0.64645100 </v>
   <v>       0.00000000       0.73382300       0.64920200 </v>
   <v>       0.33333400       0.06715700       0.64645100 </v>
   <v>       0.33333400       0.40049000       0.64782600 </v>
   <v>       0.66666800       0.40049000       0.64782600 </v>
   <v>       0.16666700       0.23382400       0.64714600 </v>
   <v>       0.16666700       0.56715700       0.64851200 </v>
   <v>       0.83333500       0.56715700       0.64851200 </v>
   <v>       0.66666800       0.73382300       0.64920200 </v>
   <v>       0.33333400       0.73382300       0.64920200 </v>
   <v>       0.83333500       0.23382400       0.64714600 </v>
   <v>       0.50000100       0.23382400       0.64714600 </v>
   <v>       0.00000000       0.40049000       0.64782600 </v>
   <v>       0.50000100       0.56715700       0.64851200 </v>
   <v>       0.50000100       0.90048800       0.64988900 </v>
   <v>       0.83333500       0.90048800       0.64988900 </v>
   <v>       0.00000000       0.95459700       0.93078000 </v>
   <v>       0.50000100       0.78792600       0.93010000 </v>
   <v>       0.00000000       0.62126200       0.92941400 </v>
   <v>       0.50000100       0.45459500       0.92872500 </v>
   <v>       0.00000000       0.28792900       0.92803900 </v>
   <v>       0.50000100       0.12126200       0.92735000 </v>
   <v>       0.66666800       0.95459700       0.93078000 </v>
   <v>       0.16666700       0.78792600       0.93010000 </v>
   <v>       0.66666800       0.62126200       0.92941400 </v>
   <v>       0.16666700       0.45459500       0.92872500 </v>
   <v>       0.00000000       0.06715700       0.64645100 </v>
   <v>       0.66666800       0.28792900       0.92803900 </v>
   <v>       0.16666700       0.12126200       0.92735000 </v>
   <v>       0.33333400       0.95459700       0.93078000 </v>
   <v>       0.83333500       0.78792600       0.93010000 </v>
   <v>       0.33333400       0.62126200       0.92941400 </v>
   <v>       0.83333500       0.45459500       0.92872500 </v>
   <v>       0.33333400       0.28792900       0.92803900 </v>
   <v>       0.50000100       0.01087700       0.78655700 </v>
   <v>       0.83333500       0.01087700       0.78655700 </v>
   <v>       0.16666700       0.01087700       0.78655700 </v>
   <v>       0.83333500       0.12126200       0.92735000 </v>
   <v>       0.66666800       0.17754300       0.78724600 </v>
   <v>       0.00000000       0.17754300       0.78724600 </v>
   <v>       0.33333400       0.17754300       0.78724600 </v>
   <v>       0.83333500       0.34421000       0.78793300 </v>
   <v>       0.16666700       0.34421000       0.78793300 </v>
   <v>       0.66666800       0.51087600       0.78861900 </v>
   <v>       0.00000000       0.51087600       0.78861900 </v>
   <v>       0.50000100       0.34421000       0.78793300 </v>
   <v>       0.33333400       0.51087600       0.78861900 </v>
   <v>       0.69385400       0.94897300       0.13757100 </v>
   <v>       0.84692800       0.76871800       0.13757100 </v>
   <v>       0.50000000       0.78230900       0.13757100 </v>
   <v>       0.00000000       0.94897300       0.13757100 </v>
   <v>       0.19385400       0.11564200       0.13757100 </v>
   <v>       0.34692800       0.93538200       0.13757100 </v>
   <v>       0.69385400       0.28230900       0.13757100 </v>
   <v>       0.84692800       0.10204900       0.13757100 </v>
   <v>       0.50000000       0.11564300       0.13757100 </v>
   <v>       0.00000000       0.28230900       0.13757100 </v>
   <v>       0.19385400       0.44897600       0.13757100 </v>
   <v>       0.34692800       0.26871500       0.13757100 </v>
   <v>       0.69385400       0.61564200       0.13757100 </v>
   <v>       0.84692800       0.43538200       0.13757100 </v>
   <v>       0.50000000       0.44897600       0.13757100 </v>
   <v>       0.00000000       0.61564200       0.13757100 </v>
   <v>       0.19385400       0.78230900       0.13757100 </v>
   <v>       0.34692800       0.60204800       0.13757100 </v>
   <v>       0.86052100       0.21769100       0.26913200 </v>
   <v>       0.16666700       0.21769100       0.26913200 </v>
   <v>       0.01359400       0.06461800       0.26913200 </v>
   <v>       0.51359300       0.56461800       0.26913200 </v>
   <v>       0.36052100       0.71769100       0.26913200 </v>
   <v>       0.66666700       0.71769100       0.26913200 </v>
   <v>       0.51359300       0.23128500       0.26913200 </v>
   <v>       0.36052100       0.38435800       0.26913200 </v>
   <v>       0.66666700       0.38435800       0.26913200 </v>
   <v>       0.34400100       0.28704100       0.38917400 </v>
   <v>       0.01359400       0.39795100       0.26913200 </v>
   <v>       0.16666700       0.55102500       0.26913200 </v>
   <v>       0.86052100       0.55102500       0.26913200 </v>
   <v>       0.51359300       0.89795300       0.26913200 </v>
   <v>       0.36052100       0.05102500       0.26913200 </v>
   <v>       0.66666700       0.05102500       0.26913200 </v>
   <v>       0.50734300       0.08999500       0.40984600 </v>
   <v>       0.18550600       0.42958900       0.39559700 </v>
   <v>       0.87867100       0.78180900       0.52637200 </v>
   <v>       0.06435000       0.92266200       0.41062800 </v>
   <v>       0.20802900       0.94701400       0.40909200 </v>
   <v>       0.87867100       0.78180900       0.40160900 </v>
   <v>       0.16666700       0.88435600       0.26913200 </v>
   <v>       0.86052100       0.88435600       0.26913200 </v>
   <v>       0.01359400       0.73128200       0.26913200 </v>
   <v>       0.16571800       0.77223900       0.38400600 </v>
   <v>       0.18548000       0.08179800       0.51392800 </v>
   <v>       0.49899000       0.42768300       0.40817600 </v>
   <v>       0.18550600       0.42958900       0.52156200 </v>
   <v>       0.18548000       0.08179800       0.38605500 </v>
   <v>       0.66346100       0.26827800       0.39211000 </v>
   <v>       0.05341600       0.63734400       0.40240300 </v>
  </varray>
  <varray name="selective"  type="logical" >
   <v type="logical" >  F  F  F </v>
   <v type="logical" >  F  F  F </v>
   <v type="logical" >  F  F  F </v>
   <v type="logical" >  F  F  F </v>
   <v type="logical" >  F  F  F </v>
   <v type="logical" >  F  F  F </v>
   <v type="logical" >  F  F  F </v>
   <v type="logical" >  F  F  F </v>
   <v type="logical" >  F  F  F </v>
   <v type="logical" >  F  F  F </v>
   <v type="logical" >  F  F  F </v>
   <v type="logical" >  F  F  F </v>
   <v type="logical" >  F  F  F </v>
   <v type="logical" >  F  F  F </v>
   <v type="logical" >  F  F  F </v>
   <v type="logical" >  F  F  F </v>
   <v type="logical" >  F  F  F </v>
   <v type="logical" >  F  F  F </v>
   <v type="logical" >  F  F  F </v>
   <v type="logical" >  F  F  F </v>
   <v type="logical" >  F  F  F </v>
   <v type="logical" >  F  F  F </v>
   <v type="logical" >  F  F  F </v>
   <v type="logical" >  F  F  F </v>
   <v type="logical" >  F  F  F </v>
   <v type="logical" >  F  F  F </v>
   <v type="logical" >  F  F  F </v>
   <v type="logical" >  T  T  T </v>
   <v type="logical" >  T  T  T </v>
   <v type="logical" >  F  F  F </v>
   <v type="logical" >  T  T  T </v>
   <v type="logical" >  F  F  F </v>
   <v type="logical" >  F  F  F </v>
   <v type="logical" >  T  T  T </v>
   <v type="logical" >  F  F  F </v>
   <v type="logical" >  F  F  F </v>
   <v type="logical" >  F  F  F </v>
   <v type="logical" >  F  F  F </v>
   <v type="logical" >  F  F  F </v>
   <v type="logical" >  F  F  F </v>
   <v type="logical" >  F  F  F </v>
   <v type="logical" >  F  F  F </v>
   <v type="logical" >  F  F  F </v>
   <v type="logical" >  F  F  F </v>
   <v type="logical" >  F  F  F </v>
   <v type="logical" >  T  T  T </v>
   <v type="logical" >  F  F  F </v>
   <v type="logical" >  F  F  F </v>
   <v type="logical" >  T  T  T </v>
   <v type="logical" >  F  F  F </v>
   <v type="logical" >  F  F  F </v>
   <v type="logical" >  F  F  F </v>
   <v type="logical" >  F  F  F </v>
   <v type="logical" >  F  F  F </v>
   <v type="logical" >  F  F  F </v>
   <v type="logical" >  F  F  F </v>
   <v type="logical" >  F  F  F </v>
   <v type="logical" >  F  F  F </v>
   <v type="logical" >  F  F  F </v>
   <v type="logical" >  F  F  F </v>
   <v type="logical" >  F  F  F </v>
   <v type="logical" >  F  F  F </v>
   <v type="logical" >  F  F  F </v>
   <v type="logical" >  F  F  F </v>
   <v type="logical" >  F  F  F </v>
   <v type="logical" >  F  F  F </v>
   <v type="logical" >  F  F  F </v>
   <v type="logical" >  F  F  F </v>
   <v type="logical" >  F  F  F </v>
   <v type="logical" >  F  F  F </v>
   <v type="logical" >  F  F  F </v>
   <v type="logical" >  F  F  F </v>
   <v type="logical" >  F  F  F </v>
   <v type="logical" >  F  F  F </v>
   <v type="logical" >  F  F  F </v>
   <v type="logical" >  F  F  F </v>
   <v type="logical" >  F  F  F </v>
   <v type="logical" >  F  F  F </v>
   <v type="logical" >  F  F  F </v>
   <v type="logical" >  F  F  F </v>
   <v type="logical" >  F  F  F </v>
   <v type="logical" >  F  F  F </v>
   <v type="logical" >  F  F  F </v>
   <v type="logical" >  F  F  F </v>
   <v type="logical" >  F  F  F </v>
   <v type="logical" >  F  F  F </v>
   <v type="logical" >  F  F  F </v>
   <v type="logical" >  F  F  F </v>
   <v type="logical" >  F  F  F </v>
   <v type="logical" >  F  F  F </v>
   <v type="logical" >  F  F  F </v>
   <v type="logical" >  F  F  F </v>
   <v type="logical" >  F  F  F </v>
   <v type="logical" >  F  F  F </v>
   <v type="logical" >  F  F  F </v>
   <v type="logical" >  F  F  F </v>
   <v type="logical" >  F  F  F </v>
   <v type="logical" >  F  F  F </v>
   <v type="logical" >  F  F  F </v>
   <v type="logical" >  F  F  F </v>
   <v type="logical" >  F  F  F </v>
   <v type="logical" >  F  F  F </v>
   <v type="logical" >  F  F  F </v>
   <v type="logical" >  F  F  F </v>
   <v type="logical" >  F  F  F </v>
   <v type="logical" >  F  F  F </v>
   <v type="logical" >  F  F  F </v>
   <v type="logical" >  F  F  F </v>
   <v type="logical" >  F  F  F </v>
   <v type="logical" >  F  F  F </v>
   <v type="logical" >  F  F  F </v>
   <v type="logical" >  F  F  F </v>
   <v type="logical" >  F  F  F </v>
   <v type="logical" >  F  F  F </v>
   <v type="logical" >  F  F  F </v>
   <v type="logical" >  F  F  F </v>
   <v type="logical" >  F  F  F </v>
   <v type="logical" >  F  F  F </v>
   <v type="logical" >  F  F  F </v>
   <v type="logical" >  F  F  F </v>
   <v type="logical" >  F  F  F </v>
   <v type="logical" >  F  F  F </v>
   <v type="logical" >  F  F  F </v>
   <v type="logical" >  F  F  F </v>
   <v type="logical" >  F  F  F </v>
   <v type="logical" >  F  F  F </v>
   <v type="logical" >  F  F  F </v>
   <v type="logical" >  F  F  F </v>
   <v type="logical" >  F  F  F </v>
   <v type="logical" >  F  F  F </v>
   <v type="logical" >  F  F  F </v>
   <v type="logical" >  F  F  F </v>
   <v type="logical" >  T  T  T </v>
   <v type="logical" >  F  F  F </v>
   <v type="logical" >  F  F  F </v>
   <v type="logical" >  F  F  F </v>
   <v type="logical" >  F  F  F </v>
   <v type="logical" >  F  F  F </v>
   <v type="logical" >  F  F  F </v>
   <v type="logical" >  F  F  F </v>
   <v type="logical" >  T  T  T </v>
   <v type="logical" >  F  F  F </v>
   <v type="logical" >  T  T  T </v>
   <v type="logical" >  F  F  F </v>
   <v type="logical" >  F  F  F </v>
   <v type="logical" >  F  F  F </v>
  </varray>
  <nose>
   <v>      -3.00000000       0.00000000       0.00010000       0.00010000 </v>
  </nose>
 </structure>
 <calculation>
  <scstep>
   <time name="dav">    5.87    6.24</time>
   <time name="total">    6.03    6.42</time>
   <energy>
    <i name="alphaZ">    302.72888638 </i>
    <i name="ewald">   2724.52832679 </i>
    <i name="hartreedc"> -30915.94246572 </i>
    <i name="XCdc">  -1118.92828342 </i>
    <i name="pawpsdc">  23682.68892860 </i>
    <i name="pawaedc"> -20704.98697045 </i>
    <i name="eentropy">      0.00099673 </i>
    <i name="bandstr">   1936.94976149 </i>
    <i name="atom">  26752.82261666 </i>
    <i name="e_fr_energy">   2659.86179706 </i>
    <i name="e_wo_entrp">   2659.86080033 </i>
    <i name="e_0_energy">   2659.86146481 </i>
   </energy>
  </scstep>
  <scstep>
   <time name="dav">    7.14    7.57</time>
   <time name="total">    7.15    7.58</time>
   <energy>
    <i name="e_fr_energy">   -466.25859714 </i>
    <i name="e_wo_entrp">   -466.25481122 </i>
    <i name="e_0_energy">   -466.25733516 </i>
   </energy>
  </scstep>
  <scstep>
   <time name="dav">    6.53    6.73</time>
   <time name="total">    6.53    6.74</time>
   <energy>
    <i name="e_fr_energy">   -834.62427865 </i>
    <i name="e_wo_entrp">   -834.61499980 </i>
    <i name="e_0_energy">   -834.62118570 </i>
   </energy>
  </scstep>
  <scstep>
   <time name="dav">    6.77    6.87</time>
   <time name="total">    6.77    6.88</time>
   <energy>
    <i name="e_fr_energy">   -843.85175762 </i>
    <i name="e_wo_entrp">   -843.84251340 </i>
    <i name="e_0_energy">   -843.84867622 </i>
   </energy>
  </scstep>
  <scstep>
   <time name="dav">    7.27    7.45</time>
   <time name="total">    7.67    7.87</time>
   <energy>
    <i name="e_fr_energy">   -844.11356001 </i>
    <i name="e_wo_entrp">   -844.10431499 </i>
    <i name="e_0_energy">   -844.11047834 </i>
   </energy>
  </scstep>
  <scstep>
   <time name="diag">    1.05    1.07</time>
   <time name="diis">    3.21    3.25</time>
   <time name="orth">    0.26    0.26</time>
   <time name="total">    5.09    5.17</time>
   <energy>
    <i name="e_fr_energy">   -776.92657856 </i>
    <i name="e_wo_entrp">   -776.94741201 </i>
    <i name="e_0_energy">   -776.93352305 </i>
   </energy>
  </scstep>
  <scstep>
   <time name="diag">    1.09    1.11</time>
   <time name="diis">    3.35    3.41</time>
   <time name="orth">    0.25    0.26</time>
   <time name="total">    5.26    5.37</time>
   <energy>
    <i name="e_fr_energy">   -780.02627845 </i>
    <i name="e_wo_entrp">   -780.00363272 </i>
    <i name="e_0_energy">   -780.01872988 </i>
   </energy>
  </scstep>
  <scstep>
   <time name="diag">    1.02    1.08</time>
   <time name="diis">    3.16    3.35</time>
   <time name="orth">    0.25    0.26</time>
   <time name="total">    4.96    5.25</time>
   <energy>
    <i name="e_fr_energy">   -759.99694708 </i>
    <i name="e_wo_entrp">   -759.99034663 </i>
    <i name="e_0_energy">   -759.99474693 </i>
   </energy>
  </scstep>
  <scstep>
   <time name="diag">    1.07    1.07</time>
   <time name="diis">    3.22    3.22</time>
   <time name="orth">    0.25    0.26</time>
   <time name="total">    5.12    5.14</time>
   <energy>
    <i name="e_fr_energy">   -754.40444518 </i>
    <i name="e_wo_entrp">   -754.39798337 </i>
    <i name="e_0_energy">   -754.40229124 </i>
   </energy>
  </scstep>
  <scstep>
   <time name="diag">    1.05    1.07</time>
   <time name="diis">    3.17    3.21</time>
   <time name="orth">    0.26    0.26</time>
   <time name="total">    5.08    5.15</time>
   <energy>
    <i name="e_fr_energy">   -755.30454278 </i>
    <i name="e_wo_entrp">   -755.27953314 </i>
    <i name="e_0_energy">   -755.29620624 </i>
   </energy>
  </scstep>
  <scstep>
   <time name="diag">    1.05    1.07</time>
   <time name="diis">    3.23    3.28</time>
   <time name="orth">    0.25    0.26</time>
   <time name="total">    5.13    5.21</time>
   <energy>
    <i name="e_fr_energy">   -754.30538488 </i>
    <i name="e_wo_entrp">   -754.28553049 </i>
    <i name="e_0_energy">   -754.29876675 </i>
   </energy>
  </scstep>
  <scstep>
   <time name="diag">    1.05    1.07</time>
   <time name="diis">    3.24    3.29</time>
   <time name="orth">    0.26    0.26</time>
   <time name="total">    5.16    5.24</time>
   <energy>
    <i name="e_fr_energy">   -752.41414575 </i>
    <i name="e_wo_entrp">   -752.42070963 </i>
    <i name="e_0_energy">   -752.41633371 </i>
   </energy>
  </scstep>
  <scstep>
   <time name="diag">    1.06    1.08</time>
   <time name="diis">    3.25    3.34</time>
   <time name="orth">    0.25    0.26</time>
   <time name="total">    5.14    5.28</time>
   <energy>
    <i name="e_fr_energy">   -752.25030934 </i>
    <i name="e_wo_entrp">   -752.23430756 </i>
    <i name="e_0_energy">   -752.24497542 </i>
   </energy>
  </scstep>
  <scstep>
   <time name="diag">    1.02    1.08</time>
   <time name="diis">    3.14    3.32</time>
   <time name="orth">    0.25    0.26</time>
   <time name="total">    4.96    5.26</time>
   <energy>
    <i name="e_fr_energy">   -752.16678164 </i>
    <i name="e_wo_entrp">   -752.15879526 </i>
    <i name="e_0_energy">   -752.16411951 </i>
   </energy>
  </scstep>
  <scstep>
   <time name="diag">    1.03    1.09</time>
   <time name="diis">    3.11    3.26</time>
   <time name="orth">    0.25    0.26</time>
   <time name="total">    4.99    5.22</time>
   <energy>
    <i name="e_fr_energy">   -752.12413098 </i>
    <i name="e_wo_entrp">   -752.10535209 </i>
    <i name="e_0_energy">   -752.11787135 </i>
   </energy>
  </scstep>
  <scstep>
   <time name="diag">    1.02    1.07</time>
   <time name="diis">    2.87    2.99</time>
   <time name="orth">    0.25    0.26</time>
   <time name="total">    4.73    4.92</time>
   <energy>
    <i name="e_fr_energy">   -752.10463394 </i>
    <i name="e_wo_entrp">   -752.09050912 </i>
    <i name="e_0_energy">   -752.09992567 </i>
   </energy>
  </scstep>
  <scstep>
   <time name="diag">    1.03    1.08</time>
   <time name="diis">    2.81    2.93</time>
   <time name="orth">    0.25    0.26</time>
   <time name="total">    4.68    4.88</time>
   <energy>
    <i name="e_fr_energy">   -752.08643060 </i>
    <i name="e_wo_entrp">   -752.06929136 </i>
    <i name="e_0_energy">   -752.08071752 </i>
   </energy>
  </scstep>
  <scstep>
   <time name="diag">    1.03    1.07</time>
   <time name="diis">    2.38    2.47</time>
   <time name="orth">    0.25    0.26</time>
   <time name="total">    4.24    4.41</time>
   <energy>
    <i name="e_fr_energy">   -752.08375311 </i>
    <i name="e_wo_entrp">   -752.06557277 </i>
    <i name="e_0_energy">   -752.07769300 </i>
   </energy>
  </scstep>
  <scstep>
   <time name="diag">    1.05    1.06</time>
   <time name="diis">    2.34    2.37</time>
   <time name="orth">    0.26    0.26</time>
   <time name="total">    3.80    3.86</time>
   <energy>
    <i name="alphaZ">    302.72888638 </i>
    <i name="ewald">   2724.52832679 </i>
    <i name="hartreedc"> -31959.55799475 </i>
    <i name="XCdc">  -1049.02876057 </i>
    <i name="pawpsdc">  41990.94419278 </i>
    <i name="pawaedc"> -39024.29872248 </i>
    <i name="eentropy">     -0.01676531 </i>
    <i name="bandstr">   -490.20504146 </i>
    <i name="atom">  26752.82261666 </i>
    <i name="e_fr_energy">   -752.08326197 </i>
    <i name="e_wo_entrp">   -752.06649665 </i>
    <i name="e_0_energy">   -752.07767353 </i>
   </energy>
  </scstep>
  <structure>
   <crystal>
    <varray name="basis" >
     <v>       8.42830000       0.00000000       0.00000000 </v>
     <v>       0.00000000      14.59820000       0.00000000 </v>
     <v>       0.00000000       0.00000000      16.58321000 </v>
    </varray>
    <i name="volume">   2040.36514222 </i>
    <varray name="rec_basis" >
     <v>       0.11864789       0.00000000       0.00000000 </v>
     <v>       0.00000000       0.06850160       0.00000000 </v>
     <v>       0.00000000       0.00000000       0.06030196 </v>
    </varray>
   </crystal>
   <varray name="positions" >
    <v>       0.83333500       0.67754300       0.78930800 </v>
    <v>       0.00000000       0.84420700       0.78999400 </v>
    <v>       0.16666700       0.67754300       0.78930800 </v>
    <v>       0.66666800       0.84420700       0.78999400 </v>
    <v>       0.50000100       0.67754300       0.78930800 </v>
    <v>       0.33333400       0.84420700       0.78999400 </v>
    <v>       0.68026100       0.83333600       0.08660300 </v>
    <v>       0.01359400       0.83333600       0.18854400 </v>
    <v>       0.18025900       0.00000000       0.08660300 </v>
    <v>       0.51359300       0.00000000       0.18854400 </v>
    <v>       0.68026100       0.16666700       0.08660300 </v>
    <v>       0.18025900       0.33333300       0.08660300 </v>
    <v>       0.51359300       0.33333300       0.18854400 </v>
    <v>       0.01359400       0.16666700       0.18854400 </v>
    <v>       0.68026100       0.50000000       0.08660300 </v>
    <v>       0.18025900       0.66666600       0.08660300 </v>
    <v>       0.51359300       0.66666600       0.18854400 </v>
    <v>       0.01359400       0.50000000       0.18854400 </v>
    <v>       0.01359400       0.16666700       0.32676700 </v>
    <v>       0.84692800       0.33333300       0.21815900 </v>
    <v>       0.51359300       0.66666600       0.32676700 </v>
    <v>       0.34692800       0.50000000       0.21815900 </v>
    <v>       0.51359300       0.33333300       0.32676700 </v>
    <v>       0.34692800       0.16666700       0.35638700 </v>
    <v>       0.34692800       0.16666700       0.21815900 </v>
    <v>       0.01359400       0.50000000       0.32676700 </v>
    <v>       0.51359300       0.00000000       0.32676700 </v>
    <v>       0.66666800       0.17754300       0.53694800 </v>
    <v>       0.84013200       0.33877200       0.51384600 </v>
    <v>       0.34692800       0.50000000       0.35638700 </v>
    <v>       0.00679700       0.83877200       0.45458000 </v>
    <v>       0.01359400       0.83333600       0.32676700 </v>
    <v>       0.34692800       0.83333600       0.35638700 </v>
    <v>       0.16666700       0.34421000       0.53749700 </v>
    <v>       0.84692800       0.66666700       0.35638700 </v>
    <v>       0.84692800       0.66666700       0.21815900 </v>
    <v>       0.34692800       0.83333600       0.21815900 </v>
    <v>       0.84692800       0.00000000       0.21815900 </v>
    <v>       0.84692800       0.33333300       0.35638700 </v>
    <v>       0.34692800       0.83333600       0.05698300 </v>
    <v>       0.34692800       0.16666700       0.05698300 </v>
    <v>       0.34692800       0.50000000       0.05698300 </v>
    <v>       0.84692800       0.33333300       0.05698300 </v>
    <v>       0.84692800       0.66666700       0.05698300 </v>
    <v>       0.84692800       0.00000000       0.05698300 </v>
    <v>       0.66666800       0.84420700       0.53914600 </v>
    <v>       0.16666700       0.90048800       0.64988900 </v>
    <v>       0.84692800       0.00000000       0.35638700 </v>
    <v>       0.84013200       0.00543800       0.51329500 </v>
    <v>       0.66666800       0.06715700       0.64645100 </v>
    <v>       0.00000000       0.73382300       0.64920200 </v>
    <v>       0.33333400       0.06715700       0.64645100 </v>
    <v>       0.33333400       0.40049000       0.64782600 </v>
    <v>       0.66666800       0.40049000       0.64782600 </v>
    <v>       0.16666700       0.23382400       0.64714600 </v>
    <v>       0.16666700       0.56715700       0.64851200 </v>
    <v>       0.83333500       0.56715700       0.64851200 </v>
    <v>       0.66666800       0.73382300       0.64920200 </v>
    <v>       0.33333400       0.73382300       0.64920200 </v>
    <v>       0.83333500       0.23382400       0.64714600 </v>
    <v>       0.50000100       0.23382400       0.64714600 </v>
    <v>       0.00000000       0.40049000       0.64782600 </v>
    <v>       0.50000100       0.56715700       0.64851200 </v>
    <v>       0.50000100       0.90048800       0.64988900 </v>
    <v>       0.83333500       0.90048800       0.64988900 </v>
    <v>       0.00000000       0.95459700       0.93078000 </v>
    <v>       0.50000100       0.78792600       0.93010000 </v>
    <v>       0.00000000       0.62126200       0.92941400 </v>
    <v>       0.50000100       0.45459500       0.92872500 </v>
    <v>       0.00000000       0.28792900       0.92803900 </v>
    <v>       0.50000100       0.12126200       0.92735000 </v>
    <v>       0.66666800       0.95459700       0.93078000 </v>
    <v>       0.16666700       0.78792600       0.93010000 </v>
    <v>       0.66666800       0.62126200       0.92941400 </v>
    <v>       0.16666700       0.45459500       0.92872500 </v>
    <v>       0.00000000       0.06715700       0.64645100 </v>
    <v>       0.66666800       0.28792900       0.92803900 </v>
    <v>       0.16666700       0.12126200       0.92735000 </v>
    <v>       0.33333400       0.95459700       0.93078000 </v>
    <v>       0.83333500       0.78792600       0.93010000 </v>
    <v>       0.33333400       0.62126200       0.92941400 </v>
    <v>       0.83333500       0.45459500       0.92872500 </v>
    <v>       0.33333400       0.28792900       0.92803900 </v>
    <v>       0.50000100       0.01087700       0.78655700 </v>
    <v>       0.83333500       0.01087700       0.78655700 </v>
    <v>       0.16666700       0.01087700       0.78655700 </v>
    <v>       0.83333500       0.12126200       0.92735000 </v>
    <v>       0.66666800       0.17754300       0.78724600 </v>
    <v>       0.00000000       0.17754300       0.78724600 </v>
    <v>       0.33333400       0.17754300       0.78724600 </v>
    <v>       0.83333500       0.34421000       0.78793300 </v>
    <v>       0.16666700       0.34421000       0.78793300 </v>
    <v>       0.66666800       0.51087600       0.78861900 </v>
    <v>       0.00000000       0.51087600       0.78861900 </v>
    <v>       0.50000100       0.34421000       0.78793300 </v>
    <v>       0.33333400       0.51087600       0.78861900 </v>
    <v>       0.69385400       0.94897300       0.13757100 </v>
    <v>       0.84692800       0.76871800       0.13757100 </v>
    <v>       0.50000000       0.78230900       0.13757100 </v>
    <v>       0.00000000       0.94897300       0.13757100 </v>
    <v>       0.19385400       0.11564200       0.13757100 </v>
    <v>       0.34692800       0.93538200       0.13757100 </v>
    <v>       0.69385400       0.28230900       0.13757100 </v>
    <v>       0.84692800       0.10204900       0.13757100 </v>
    <v>       0.50000000       0.11564300       0.13757100 </v>
    <v>       0.00000000       0.28230900       0.13757100 </v>
    <v>       0.19385400       0.44897600       0.13757100 </v>
    <v>       0.34692800       0.26871500       0.13757100 </v>
    <v>       0.69385400       0.61564200       0.13757100 </v>
    <v>       0.84692800       0.43538200       0.13757100 </v>
    <v>       0.50000000       0.44897600       0.13757100 </v>
    <v>       0.00000000       0.61564200       0.13757100 </v>
    <v>       0.19385400       0.78230900       0.13757100 </v>
    <v>       0.34692800       0.60204800       0.13757100 </v>
    <v>       0.86052100       0.21769100       0.26913200 </v>
    <v>       0.16666700       0.21769100       0.26913200 </v>
    <v>       0.01359400       0.06461800       0.26913200 </v>
    <v>       0.51359300       0.56461800       0.26913200 </v>
    <v>       0.36052100       0.71769100       0.26913200 </v>
    <v>       0.66666700       0.71769100       0.26913200 </v>
    <v>       0.51359300       0.23128500       0.26913200 </v>
    <v>       0.36052100       0.38435800       0.26913200 </v>
    <v>       0.66666700       0.38435800       0.26913200 </v>
    <v>       0.34400100       0.28704100       0.38917400 </v>
    <v>       0.01359400       0.39795100       0.26913200 </v>
    <v>       0.16666700       0.55102500       0.26913200 </v>
    <v>       0.86052100       0.55102500       0.26913200 </v>
    <v>       0.51359300       0.89795300       0.26913200 </v>
    <v>       0.36052100       0.05102500       0.26913200 </v>
    <v>       0.66666700       0.05102500       0.26913200 </v>
    <v>       0.50734300       0.08999500       0.40984600 </v>
    <v>       0.18550600       0.42958900       0.39559700 </v>
    <v>       0.87867100       0.78180900       0.52637200 </v>
    <v>       0.06435000       0.92266200       0.41062800 </v>
    <v>       0.20802900       0.94701400       0.40909200 </v>
    <v>       0.87867100       0.78180900       0.40160900 </v>
    <v>       0.16666700       0.88435600       0.26913200 </v>
    <v>       0.86052100       0.88435600       0.26913200 </v>
    <v>       0.01359400       0.73128200       0.26913200 </v>
    <v>       0.16571800       0.77223900       0.38400600 </v>
    <v>       0.18548000       0.08179800       0.51392800 </v>
    <v>       0.49899000       0.42768300       0.40817600 </v>
    <v>       0.18550600       0.42958900       0.52156200 </v>
    <v>       0.18548000       0.08179800       0.38605500 </v>
    <v>       0.66346100       0.26827800       0.39211000 </v>
    <v>       0.05341600       0.63734400       0.40240300 </v>
   </varray>
  </structure>
  <varray name="forces" >
   <v>      -0.13995330       0.01007212      -0.02322512 </v>
   <v>      -0.06891840       0.04497997      -0.25972439 </v>
   <v>       0.13704424       0.04396222       0.07079240 </v>
   <v>       0.02518459      -0.00696075       0.20428763 </v>
   <v>       0.10675621      -0.01573870      -0.17592526 </v>
   <v>      -0.14356687      -0.09096639       0.09284474 </v>
   <v>       0.02389703      -0.14415928       0.27926844 </v>
   <v>       0.42559908      -0.43724497      -1.13753980 </v>
   <v>       0.00256028      -0.01408552       0.37983345 </v>
   <v>      -0.43098067       0.52771986      -1.75961393 </v>
   <v>      -0.06855222       0.02555490       0.52367132 </v>
   <v>       0.14970634       0.01047209       0.61225071 </v>
   <v>      -0.43426160      -0.11438288      -0.52948957 </v>
   <v>       0.36907478       0.21990716      -1.57111437 </v>
   <v>      -0.06036437      -0.15873082       0.43786726 </v>
   <v>      -0.00739979      -0.04826974       0.40487513 </v>
   <v>      -0.18198169      -0.08283067      -1.77160508 </v>
   <v>       0.33887418       0.06342637      -1.62459925 </v>
   <v>       2.27279029      -1.15897392       4.63657226 </v>
   <v>      -0.46702736       0.25613372      -3.12872632 </v>
   <v>       0.09323514       0.26778640       4.43704260 </v>
   <v>      -0.26798583      -0.91224094      -2.77555785 </v>
   <v>      -1.03029409       0.00395925       7.92995455 </v>
   <v>       1.01436945      -0.30287404       5.34898348 </v>
   <v>       0.39013654       0.44316966      -2.47933141 </v>
   <v>       3.02623926       0.99714363       6.64468077 </v>
   <v>      -0.76321670       3.15608163       5.71320229 </v>
   <v>      -0.64431134      -0.12055368      -4.48265065 </v>
   <v>      -0.81628328      -0.10829674      -0.76938798 </v>
   <v>       0.27015474      -3.51739794       4.32268852 </v>
   <v>      -0.68956403     -10.29518321      11.22384004 </v>
   <v>       0.84711811      -2.73960941      -0.86877269 </v>
   <v>      -2.36308381      -0.68298314       3.82927784 </v>
   <v>      -3.69041101     -34.99060880       2.47219027 </v>
   <v>       3.51584358       1.25444297       4.25506862 </v>
   <v>       0.79264945       0.35911018      -3.05936368 </v>
   <v>      -0.85638123      -0.03147125      -3.21621474 </v>
   <v>       0.13949246       0.01961598      -3.38114117 </v>
   <v>      -2.40076650      -1.20361606       2.81703995 </v>
   <v>      -0.32287381       0.21402403       0.85748601 </v>
   <v>      -0.18184206       0.18247466       0.93702274 </v>
   <v>      -0.19203754       0.09495603       0.93840999 </v>
   <v>      -0.08825196       0.22643519       0.94096021 </v>
   <v>      -0.12106572       0.13340334       0.91098155 </v>
   <v>      -0.03057138       0.29843715       0.89497053 </v>
   <v>       1.10026322      -0.43480853      -3.52141832 </v>
   <v>       0.09522785      -0.02860908      -0.25911923 </v>
   <v>       0.32870156       0.55401730       1.95776193 </v>
   <v>      -0.39552422       0.83985131      -0.12802361 </v>
   <v>      -0.06760837      -0.82793779       0.90078199 </v>
   <v>      -0.23510538       0.23468256      -1.17298621 </v>
   <v>      -0.71257824      -0.01141762      -1.57709075 </v>
   <v>       0.67394426       0.65476138       0.41180685 </v>
   <v>      -0.16030489       0.17747015      -0.33664183 </v>
   <v>       0.06992148      -1.01715914       0.43955109 </v>
   <v>      -0.02819190       0.23308131      -0.37258470 </v>
   <v>       0.02176114       0.06666009      -0.06392435 </v>
   <v>      -0.38193691      -1.25155572       1.08000044 </v>
   <v>      -0.15210705      -0.05190976      -0.11495459 </v>
   <v>       0.88157011       0.36949741       1.03465645 </v>
   <v>      -0.87808056       0.49294098       0.58695742 </v>
   <v>      -0.75850811       0.64599521       1.02078329 </v>
   <v>      -0.05520385       0.05828544      -0.24526685 </v>
   <v>      -0.85009779       0.35058338       0.52466980 </v>
   <v>       1.17485456       0.52894062       0.91032365 </v>
   <v>       0.47049581      -0.01551376      -0.36550720 </v>
   <v>       0.48626079      -0.23354845      -0.34572651 </v>
   <v>       0.49536938      -0.16779801      -0.11578462 </v>
   <v>       0.40422852      -0.05472485      -0.28608928 </v>
   <v>       0.35698134      -0.10835536      -0.26429265 </v>
   <v>       0.38537894      -0.12061229      -0.25528430 </v>
   <v>      -0.24535377      -0.08440209      -0.23270142 </v>
   <v>      -0.08475057      -0.18555930       0.05964876 </v>
   <v>      -0.33738408      -0.18632981      -0.05858994 </v>
   <v>      -0.14056120      -0.16646111       0.09691903 </v>
   <v>       0.81319561       0.00978627      -0.79519330 </v>
   <v>      -0.14564772      -0.20805974      -0.23250497 </v>
   <v>      -0.13432943      -0.11964022      -0.00843416 </v>
   <v>      -0.23441181       0.32506778       0.23469179 </v>
   <v>      -0.25870975       0.22144216       0.18323704 </v>
   <v>      -0.12071853       0.20217445       0.27949463 </v>
   <v>      -0.17078662       0.12030995       0.16946801 </v>
   <v>      -0.15560431       0.15455422       0.14788227 </v>
   <v>       0.09960241       0.13210653       0.16024388 </v>
   <v>      -0.00700888       0.01618031       0.20910863 </v>
   <v>       0.00400826       0.00952234       0.11171403 </v>
   <v>      -0.14271524       0.15951115       0.22574140 </v>
   <v>      -0.02149921      -0.03729270       0.27262125 </v>
   <v>       0.03254555       0.02698265       0.00407912 </v>
   <v>      -0.00834197       0.03632574       0.09090453 </v>
   <v>       0.03704983       0.02257658       0.05263988 </v>
   <v>       0.02236030       0.06702328       0.00497507 </v>
   <v>       0.09515202       0.03503341       0.17916365 </v>
   <v>      -0.08244784      -0.22240737      -0.10591487 </v>
   <v>      -0.06430219      -0.12317581       0.04002489 </v>
   <v>       0.04381577      -0.05946009       0.14102364 </v>
   <v>      -0.08183220      -0.12947713      -0.58351713 </v>
   <v>      -0.19706445       0.13524242      -0.83092935 </v>
   <v>       0.14306217      -0.01273562      -0.50274204 </v>
   <v>      -0.05854187      -0.04872571      -0.58424806 </v>
   <v>      -0.14287427      -0.14928657      -0.75354233 </v>
   <v>       0.23128698      -0.09937240      -0.56636139 </v>
   <v>       0.14440122      -0.15980506      -1.00741717 </v>
   <v>      -0.02560885       0.01334661      -0.61779058 </v>
   <v>       0.21668944      -0.15775872      -0.91190875 </v>
   <v>      -0.03700562      -0.06740635      -0.63152918 </v>
   <v>      -0.19904753      -0.03217617      -0.88604777 </v>
   <v>      -0.15971730      -0.10608263      -1.14913560 </v>
   <v>      -0.07150934       0.02627130      -0.55308700 </v>
   <v>       0.08354379       0.11285610      -0.67910161 </v>
   <v>       0.23302194       0.21467370      -1.02957659 </v>
   <v>      -0.05074193      -0.13484067      -0.72289501 </v>
   <v>       0.11855243      -0.07257764      -0.84311732 </v>
   <v>       0.14587609       0.09798875      -0.67705651 </v>
   <v>       0.65583311       2.02837627      -0.26627941 </v>
   <v>       1.04337732      -1.40921030      -1.20947992 </v>
   <v>      -3.22354147      -1.54869027      -0.94086528 </v>
   <v>      -2.13632789      -0.60153731      -0.35262956 </v>
   <v>       0.69372330       2.21090270      -0.80377291 </v>
   <v>       2.07130469      -1.34392730      -0.38288447 </v>
   <v>      -2.31921532      -1.82239390      -2.67874007 </v>
   <v>       0.27895798       3.34348942      -2.98701014 </v>
   <v>       3.12928014      -1.00348970      -1.32467512 </v>
   <v>      -0.35843822      -2.80554622       1.25724504 </v>
   <v>      -2.94328508      -1.33168124      -0.67333720 </v>
   <v>       2.37836711      -1.21185565      -1.38374678 </v>
   <v>      -0.28950270       2.08745724      -0.27866743 </v>
   <v>      -1.84201819      -1.00973720       0.21283124 </v>
   <v>       0.74792296       1.65591156      -1.78392702 </v>
   <v>       2.51024843      -1.85539489      -0.51299669 </v>
   <v>      -0.24531155      -0.95613018      -1.27872161 </v>
   <v>      -1.78357989       2.48240504      -1.70210000 </v>
   <v>       0.03197035       0.68087613       5.03932091 </v>
   <v>      -4.31754116       7.19939236      -4.62413310 </v>
   <v>       9.10493779       0.28127839       0.39516610 </v>
   <v>      -3.66292372      -0.47846796      -5.46120755 </v>
   <v>       2.01305953      -0.89370416      -2.37954573 </v>
   <v>      -0.15033547       3.34700232      -0.30788959 </v>
   <v>      -3.21187376      -1.22859301      -3.04788785 </v>
   <v>       1.80247058       1.87965966       2.86519615 </v>
   <v>      -0.68314855       0.33910208       2.41919662 </v>
   <v>      -0.10339286       2.14596771      -0.90163650 </v>
   <v>       4.81311701      35.11524144      -4.42406936 </v>
   <v>      -1.76472007       4.65939283       0.49344713 </v>
   <v>       2.80233716       1.12439836       1.66753854 </v>
   <v>      -3.87588976      -3.21534347      -0.88865578 </v>
  </varray>
  <varray name="stress" >
   <v>     -13.18227895      10.51828509      -6.01217315 </v>
   <v>      10.51828511       5.47953888     -10.76378043 </v>
   <v>      -6.01217316     -10.76378041      78.95794974 </v>
  </varray>
  <energy>
   <i name="e_fr_energy">   -752.08326197 </i>
   <i name="e_wo_entrp">   -752.07767353 </i>
   <i name="e_0_energy">     -0.01676531 </i>
  </energy>
  <time name="totalsc">  110.97  114.81</time>
 </calculation>
 <calculation>
  <scstep>
   <time name="dav">    6.84    6.90</time>
   <time name="total">    7.44    7.51</time>
   <energy>
    <i name="alphaZ">    302.72888638 </i>
    <i name="ewald">   2421.37463281 </i>
    <i name="hartreedc"> -31661.41246804 </i>
    <i name="XCdc">  -1052.39466987 </i>
    <i name="pawpsdc">  41977.27689295 </i>
    <i name="pawaedc"> -39010.62946309 </i>
    <i name="eentropy">      0.00415864 </i>
    <i name="bandstr">   -459.25860627 </i>
    <i name="atom">  26752.82261666 </i>
    <i name="e_fr_energy">   -729.48801983 </i>
    <i name="e_wo_entrp">   -729.49217847 </i>
    <i name="e_0_energy">   -729.48940604 </i>
   </energy>
  </scstep>
  <scstep>
   <time name="diag">    1.07    1.07</time>
   <time name="diis">    3.70    3.70</time>
   <time name="orth">    0.26    0.26</time>
   <time name="total">    5.61    5.61</time>
   <energy>
    <i name="e_fr_energy">   -766.50429615 </i>
    <i name="e_wo_entrp">   -766.49982104 </i>
    <i name="e_0_energy">   -766.50280444 </i>
   </energy>
  </scstep>
  <scstep>
   <time name="diag">    1.07    1.07</time>
   <time name="diis">    3.48    3.48</time>
   <time name="orth">    0.26    0.26</time>
   <time name="total">    5.40    5.41</time>
   <energy>
    <i name="e_fr_energy">   -758.29012764 </i>
    <i name="e_wo_entrp">   -758.29669292 </i>
    <i name="e_0_energy">   -758.29231607 </i>
   </energy>
  </scstep>
  <scstep>
   <time name="diag">    1.05    1.07</time>
   <time name="diis">    3.33    3.40</time>
   <time name="orth">    0.26    0.26</time>
   <time name="total">    5.18    5.30</time>
   <energy>
    <i name="e_fr_energy">   -756.74116042 </i>
    <i name="e_wo_entrp">   -756.74858393 </i>
    <i name="e_0_energy">   -756.74363492 </i>
   </energy>
  </scstep>
  <scstep>
   <time name="diag">    1.04    1.08</time>
   <time name="diis">    3.18    3.31</time>
   <time name="orth">    0.25    0.26</time>
   <time name="total">    5.03    5.23</time>
   <energy>
    <i name="e_fr_energy">   -755.40513846 </i>
    <i name="e_wo_entrp">   -755.42018333 </i>
    <i name="e_0_energy">   -755.41015342 </i>
   </energy>
  </scstep>
  <scstep>
   <time name="diag">    1.06    1.06</time>
   <time name="diis">    3.22    3.22</time>
   <time name="orth">    0.26    0.26</time>
   <time name="total">    5.13    5.14</time>
   <energy>
    <i name="e_fr_energy">   -754.62581497 </i>
    <i name="e_wo_entrp">   -754.61818302 </i>
    <i name="e_0_energy">   -754.62327099 </i>
   </energy>
  </scstep>
  <scstep>
   <time name="diag">    1.16    1.16</time>
   <time name="diis">    3.25    3.25</time>
   <time name="orth">    0.26    0.26</time>
   <time name="total">    5.26    5.27</time>
   <energy>
    <i name="e_fr_energy">   -754.46695108 </i>
    <i name="e_wo_entrp">   -754.47022926 </i>
    <i name="e_0_energy">   -754.46804381 </i>
   </energy>
  </scstep>
  <scstep>
   <time name="diag">    1.06    1.07</time>
   <time name="diis">    3.17    3.20</time>
   <time name="orth">    0.26    0.26</time>
   <time name="total">    5.06    5.11</time>
   <energy>
    <i name="e_fr_energy">   -753.87768984 </i>
    <i name="e_wo_entrp">   -753.88766043 </i>
    <i name="e_0_energy">   -753.88101337 </i>
   </energy>
  </scstep>
  <scstep>
   <time name="diag">    1.05    1.06</time>
   <time name="diis">    3.27    3.30</time>
   <time name="orth">    0.24    0.26</time>
   <time name="total">    5.13    5.21</time>
   <energy>
    <i name="e_fr_energy">   -754.05231002 </i>
    <i name="e_wo_entrp">   -754.06632061 </i>
    <i name="e_0_energy">   -754.05698021 </i>
   </energy>
  </scstep>
  <scstep>
   <time name="diag">    1.03    1.07</time>
   <time name="diis">    3.09    3.22</time>
   <time name="orth">    0.25    0.26</time>
   <time name="total">    4.94    5.14</time>
   <energy>
    <i name="e_fr_energy">   -753.81771086 </i>
    <i name="e_wo_entrp">   -753.81706309 </i>
    <i name="e_0_energy">   -753.81749494 </i>
   </energy>
  </scstep>
  <scstep>
   <time name="diag">    1.03    1.08</time>
   <time name="diis">    3.06    3.22</time>
   <time name="orth">    0.25    0.26</time>
   <time name="total">    4.89    5.15</time>
   <energy>
    <i name="e_fr_energy">   -753.91168951 </i>
    <i name="e_wo_entrp">   -753.92204654 </i>
    <i name="e_0_energy">   -753.91514186 </i>
   </energy>
  </scstep>
  <scstep>
   <time name="diag">    1.03    1.10</time>
   <time name="diis">    3.01    3.20</time>
   <time name="orth">    0.25    0.26</time>
   <time name="total">    4.85    5.17</time>
   <energy>
    <i name="e_fr_energy">   -753.91541669 </i>
    <i name="e_wo_entrp">   -753.91257999 </i>
    <i name="e_0_energy">   -753.91447112 </i>
   </energy>
  </scstep>
  <scstep>
   <time name="diag">    1.06    1.07</time>
   <time name="diis">    2.78    2.83</time>
   <time name="orth">    0.25    0.26</time>
   <time name="total">    4.64    4.75</time>
   <energy>
    <i name="e_fr_energy">   -753.85650835 </i>
    <i name="e_wo_entrp">   -753.85254509 </i>
    <i name="e_0_energy">   -753.85518726 </i>
   </energy>
  </scstep>
  <scstep>
   <time name="diag">    1.01    1.07</time>
   <time name="diis">    2.42    2.56</time>
   <time name="orth">    0.25    0.26</time>
   <time name="total">    4.24    4.48</time>
   <energy>
    <i name="e_fr_energy">   -753.85087990 </i>
    <i name="e_wo_entrp">   -753.85156999 </i>
    <i name="e_0_energy">   -753.85110993 </i>
   </energy>
  </scstep>
  <scstep>
   <time name="diag">    1.01    1.07</time>
   <time name="diis">    2.29    2.44</time>
   <time name="orth">    0.25    0.27</time>
   <time name="total">    4.10    4.36</time>
   <energy>
    <i name="e_fr_energy">   -753.85423095 </i>
    <i name="e_wo_entrp">   -753.85399324 </i>
    <i name="e_0_energy">   -753.85415171 </i>
   </energy>
  </scstep>
  <scstep>
   <time name="diag">    1.02    1.09</time>
   <time name="diis">    2.20    2.33</time>
   <time name="orth">    0.25    0.26</time>
   <time name="total">    4.00    4.25</time>
   <energy>
    <i name="e_fr_energy">   -753.85925105 </i>
    <i name="e_wo_entrp">   -753.86022064 </i>
    <i name="e_0_energy">   -753.85957424 </i>
   </energy>
  </scstep>
  <scstep>
   <time name="diag">    1.02    1.08</time>
   <time name="diis">    2.00    2.11</time>
   <time name="orth">    0.25    0.26</time>
   <time name="total">    3.84    4.06</time>
   <energy>
    <i name="e_fr_energy">   -753.85276449 </i>
    <i name="e_wo_entrp">   -753.85123578 </i>
    <i name="e_0_energy">   -753.85225492 </i>
   </energy>
  </scstep>
  <scstep>
   <time name="diag">    1.04    1.08</time>
   <time name="diis">    1.87    1.96</time>
   <time name="orth">    0.25    0.26</time>
   <time name="total">    3.32    3.47</time>
   <energy>
    <i name="alphaZ">    302.72888638 </i>
    <i name="ewald">   2421.37463281 </i>
    <i name="hartreedc"> -31676.99500324 </i>
    <i name="XCdc">  -1052.21158368 </i>
    <i name="pawpsdc">  41190.05245545 </i>
    <i name="pawaedc"> -38222.83984896 </i>
    <i name="eentropy">     -0.00220728 </i>
    <i name="bandstr">   -468.78346184 </i>
    <i name="atom">  26752.82261666 </i>
    <i name="e_fr_energy">   -753.85351370 </i>
    <i name="e_wo_entrp">   -753.85130642 </i>
    <i name="e_0_energy">   -753.85277794 </i>
   </energy>
  </scstep>
  <structure>
   <crystal>
    <varray name="basis" >
     <v>       8.42830000       0.00000000       0.00000000 </v>
     <v>       0.00000000      14.59820000       0.00000000 </v>
     <v>       0.00000000       0.00000000      16.58321000 </v>
    </varray>
    <i name="volume">   2040.36514222 </i>
    <varray name="rec_basis" >
     <v>       0.11864789       0.00000000       0.00000000 </v>
     <v>       0.00000000       0.06850160       0.00000000 </v>
     <v>       0.00000000       0.00000000       0.06030196 </v>
    </varray>
   </crystal>
   <varray name="positions" >
    <v>       0.83333500       0.67754300       0.78930800 </v>
    <v>       0.00000000       0.84420700       0.78999400 </v>
    <v>       0.16666700       0.67754300       0.78930800 </v>
    <v>       0.66666800       0.84420700       0.78999400 </v>
    <v>       0.50000100       0.67754300       0.78930800 </v>
    <v>       0.33333400       0.84420700       0.78999400 </v>
    <v>       0.68026100       0.83333600       0.08660300 </v>
    <v>       0.01359400       0.83333600       0.18854400 </v>
    <v>       0.18025900       0.00000000       0.08660300 </v>
    <v>       0.51359300       0.00000000       0.18854400 </v>
    <v>       0.68026100       0.16666700       0.08660300 </v>
    <v>       0.18025900       0.33333300       0.08660300 </v>
    <v>       0.51359300       0.33333300       0.18854400 </v>
    <v>       0.01359400       0.16666700       0.18854400 </v>
    <v>       0.68026100       0.50000000       0.08660300 </v>
    <v>       0.18025900       0.66666600       0.08660300 </v>
    <v>       0.51359300       0.66666600       0.18854400 </v>
    <v>       0.01359400       0.50000000       0.18854400 </v>
    <v>       0.01359400       0.16666700       0.32676700 </v>
    <v>       0.84692800       0.33333300       0.21815900 </v>
    <v>       0.51359300       0.66666600       0.32676700 </v>
    <v>       0.34692800       0.50000000       0.21815900 </v>
    <v>       0.51359300       0.33333300       0.32676700 </v>
    <v>       0.34692800       0.16666700       0.35638700 </v>
    <v>       0.34692800       0.16666700       0.21815900 </v>
    <v>       0.01359400       0.50000000       0.32676700 </v>
    <v>       0.51359300       0.00000000       0.32676700 </v>
    <v>       0.66298003       0.17714461       0.52390740 </v>
    <v>       0.83545969       0.33841411       0.51160775 </v>
    <v>       0.34692800       0.50000000       0.35638700 </v>
    <v>       0.00285001       0.80474952       0.48723157 </v>
    <v>       0.01359400       0.83333600       0.32676700 </v>
    <v>       0.34692800       0.83333600       0.35638700 </v>
    <v>       0.14554350       0.22857658       0.54468891 </v>
    <v>       0.84692800       0.66666700       0.35638700 </v>
    <v>       0.84692800       0.66666700       0.21815900 </v>
    <v>       0.34692800       0.83333600       0.21815900 </v>
    <v>       0.84692800       0.00000000       0.21815900 </v>
    <v>       0.84692800       0.33333300       0.35638700 </v>
    <v>       0.34692800       0.83333600       0.05698300 </v>
    <v>       0.34692800       0.16666700       0.05698300 </v>
    <v>       0.34692800       0.50000000       0.05698300 </v>
    <v>       0.84692800       0.33333300       0.05698300 </v>
    <v>       0.84692800       0.66666700       0.05698300 </v>
    <v>       0.84692800       0.00000000       0.05698300 </v>
    <v>       0.67296578       0.84277009       0.52890175 </v>
    <v>       0.16666700       0.90048800       0.64988900 </v>
    <v>       0.84692800       0.00000000       0.35638700 </v>
    <v>       0.83786806       0.00821346       0.51292256 </v>
    <v>       0.66666800       0.06715700       0.64645100 </v>
    <v>       0.00000000       0.73382300       0.64920200 </v>
    <v>       0.33333400       0.06715700       0.64645100 </v>
    <v>       0.33333400       0.40049000       0.64782600 </v>
    <v>       0.66666800       0.40049000       0.64782600 </v>
    <v>       0.16666700       0.23382400       0.64714600 </v>
    <v>       0.16666700       0.56715700       0.64851200 </v>
    <v>       0.83333500       0.56715700       0.64851200 </v>
    <v>       0.66666800       0.73382300       0.64920200 </v>
    <v>       0.33333400       0.73382300       0.64920200 </v>
    <v>       0.83333500       0.23382400       0.64714600 </v>
    <v>       0.50000100       0.23382400       0.64714600 </v>
    <v>       0.00000000       0.40049000       0.64782600 </v>
    <v>       0.50000100       0.56715700       0.64851200 </v>
    <v>       0.50000100       0.90048800       0.64988900 </v>
    <v>       0.83333500       0.90048800       0.64988900 </v>
    <v>       0.00000000       0.95459700       0.93078000 </v>
    <v>       0.50000100       0.78792600       0.93010000 </v>
    <v>       0.00000000       0.62126200       0.92941400 </v>
    <v>       0.50000100       0.45459500       0.92872500 </v>
    <v>       0.00000000       0.28792900       0.92803900 </v>
    <v>       0.50000100       0.12126200       0.92735000 </v>
    <v>       0.66666800       0.95459700       0.93078000 </v>
    <v>       0.16666700       0.78792600       0.93010000 </v>
    <v>       0.66666800       0.62126200       0.92941400 </v>
    <v>       0.16666700       0.45459500       0.92872500 </v>
    <v>       0.00000000       0.06715700       0.64645100 </v>
    <v>       0.66666800       0.28792900       0.92803900 </v>
    <v>       0.16666700       0.12126200       0.92735000 </v>
    <v>       0.33333400       0.95459700       0.93078000 </v>
    <v>       0.83333500       0.78792600       0.93010000 </v>
    <v>       0.33333400       0.62126200       0.92941400 </v>
    <v>       0.83333500       0.45459500       0.92872500 </v>
    <v>       0.33333400       0.28792900       0.92803900 </v>
    <v>       0.50000100       0.01087700       0.78655700 </v>
    <v>       0.83333500       0.01087700       0.78655700 </v>
    <v>       0.16666700       0.01087700       0.78655700 </v>
    <v>       0.83333500       0.12126200       0.92735000 </v>
    <v>       0.66666800       0.17754300       0.78724600 </v>
    <v>       0.00000000       0.17754300       0.78724600 </v>
    <v>       0.33333400       0.17754300       0.78724600 </v>
    <v>       0.83333500       0.34421000       0.78793300 </v>
    <v>       0.16666700       0.34421000       0.78793300 </v>
    <v>       0.66666800       0.51087600       0.78861900 </v>
    <v>       0.00000000       0.51087600       0.78861900 </v>
    <v>       0.50000100       0.34421000       0.78793300 </v>
    <v>       0.33333400       0.51087600       0.78861900 </v>
    <v>       0.69385400       0.94897300       0.13757100 </v>
    <v>       0.84692800       0.76871800       0.13757100 </v>
    <v>       0.50000000       0.78230900       0.13757100 </v>
    <v>       0.00000000       0.94897300       0.13757100 </v>
    <v>       0.19385400       0.11564200       0.13757100 </v>
    <v>       0.34692800       0.93538200       0.13757100 </v>
    <v>       0.69385400       0.28230900       0.13757100 </v>
    <v>       0.84692800       0.10204900       0.13757100 </v>
    <v>       0.50000000       0.11564300       0.13757100 </v>
    <v>       0.00000000       0.28230900       0.13757100 </v>
    <v>       0.19385400       0.44897600       0.13757100 </v>
    <v>       0.34692800       0.26871500       0.13757100 </v>
    <v>       0.69385400       0.61564200       0.13757100 </v>
    <v>       0.84692800       0.43538200       0.13757100 </v>
    <v>       0.50000000       0.44897600       0.13757100 </v>
    <v>       0.00000000       0.61564200       0.13757100 </v>
    <v>       0.19385400       0.78230900       0.13757100 </v>
    <v>       0.34692800       0.60204800       0.13757100 </v>
    <v>       0.86052100       0.21769100       0.26913200 </v>
    <v>       0.16666700       0.21769100       0.26913200 </v>
[...]
       <r>     2.2691    68.2283   396.2039 </r>
       <r>     2.3768    64.0328   403.1011 </r>
       <r>     2.4845    68.6213   410.4926 </r>
       <r>     2.5923    65.8689   417.5876 </r>
       <r>     2.7000    65.5212   424.6451 </r>
       <r>     2.8077    58.2887   430.9236 </r>
       <r>     2.9154    62.8600   437.6945 </r>
       <r>     3.0231    54.7597   443.5929 </r>
       <r>     3.1308    61.5863   450.2266 </r>
       <r>     3.2385    69.0475   457.6640 </r>
       <r>     3.3463    69.9133   465.1946 </r>
       <r>     3.4540    45.7178   470.1190 </r>
       <r>     3.5617    36.1085   474.0084 </r>
       <r>     3.6694    37.1463   478.0096 </r>
       <r>     3.7771    21.1479   480.2875 </r>
       <r>     3.8848    33.9049   483.9395 </r>
       <r>     3.9925    64.7125   490.9100 </r>
       <r>     4.1003    52.7663   496.5936 </r>
       <r>     4.2080    26.2934   499.4258 </r>
       <r>     4.3157    35.9966   503.3031 </r>
       <r>     4.4234    36.2631   507.2092 </r>
       <r>     4.5311    45.3153   512.0903 </r>
       <r>     4.6388    24.7333   514.7544 </r>
       <r>     4.7465    29.1314   517.8922 </r>
       <r>     4.8543    42.7775   522.5000 </r>
       <r>     4.9620    29.8711   525.7175 </r>
       <r>     5.0697    32.2698   529.1934 </r>
       <r>     5.1774    29.5346   532.3747 </r>
       <r>     5.2851    31.3119   535.7474 </r>
       <r>     5.3928    25.1817   538.4598 </r>
       <r>     5.5005    36.1796   542.3569 </r>
       <r>     5.6083    30.2522   545.6155 </r>
       <r>     5.7160    28.5067   548.6860 </r>
       <r>     5.8237    27.0283   551.5974 </r>
       <r>     5.9314    33.3060   555.1849 </r>
       <r>     6.0391    38.9110   559.3761 </r>
       <r>     6.1468    27.4161   562.3292 </r>
       <r>     6.2545    41.7595   566.8273 </r>
       <r>     6.3622    36.1959   570.7261 </r>
       <r>     6.4700    28.6009   573.8068 </r>
       <r>     6.5777    46.6539   578.8321 </r>
       <r>     6.6854    32.7442   582.3591 </r>
       <r>     6.7931    42.5974   586.9474 </r>
       <r>     6.9008    40.3570   591.2944 </r>
       <r>     7.0085    27.1040   594.2139 </r>
       <r>     7.1162    33.5914   597.8322 </r>
       <r>     7.2240    52.6614   603.5045 </r>
       <r>     7.3317    39.6079   607.7708 </r>
       <r>     7.4394    32.5869   611.2809 </r>
       <r>     7.5471    18.3645   613.2590 </r>
       <r>     7.6548    22.9875   615.7351 </r>
       <r>     7.7625    35.3219   619.5397 </r>
       <r>     7.8702    34.1997   623.2235 </r>
       <r>     7.9780    33.4213   626.8235 </r>
       <r>     8.0857    38.9553   631.0195 </r>
       <r>     8.1934    37.2119   635.0277 </r>
       <r>     8.3011    36.0216   638.9078 </r>
       <r>     8.4088    51.8563   644.4934 </r>
       <r>     8.5165    43.9426   649.2266 </r>
       <r>     8.6242    42.0592   653.7570 </r>
       <r>     8.7320    36.8983   657.7314 </r>
       <r>     8.8397    43.6456   662.4327 </r>
       <r>     8.9474    28.0142   665.4502 </r>
       <r>     9.0551    31.2953   668.8211 </r>
       <r>     9.1628    44.8293   673.6499 </r>
       <r>     9.2705    38.1207   677.7560 </r>
       <r>     9.3782    42.6978   682.3551 </r>
       <r>     9.4859    43.2404   687.0127 </r>
       <r>     9.5937    34.0271   690.6779 </r>
       <r>     9.7014    25.7253   693.4489 </r>
       <r>     9.8091    36.9988   697.4342 </r>
       <r>     9.9168    49.4306   702.7586 </r>
       <r>    10.0245    53.3208   708.5019 </r>
       <r>    10.1322    56.4660   714.5841 </r>
       <r>    10.2399    54.1326   720.4149 </r>
       <r>    10.3477    55.1894   726.3596 </r>
       <r>    10.4554    45.9791   731.3122 </r>
       <r>    10.5631    28.7694   734.4110 </r>
       <r>    10.6708    15.1842   736.0466 </r>
       <r>    10.7785    -0.2172   736.0232 </r>
       <r>    10.8862    -0.2130   736.0003 </r>
       <r>    10.9939    -0.0024   736.0000 </r>
       <r>    11.1017    -0.0000   736.0000 </r>
       <r>    11.2094    -0.0000   736.0000 </r>
       <r>    11.3171    -0.0000   736.0000 </r>
       <r>    11.4248     0.0000   736.0000 </r>
       <r>    11.5325     0.0000   736.0000 </r>
       <r>    11.6402     0.0000   736.0000 </r>
       <r>    11.7479     0.0000   736.0000 </r>
       <r>    11.8557     0.0000   736.0000 </r>
       <r>    11.9634     0.0000   736.0000 </r>
       <r>    12.0711     0.0000   736.0000 </r>
      </set>
     </set>
    </array>
   </total>
  </dos>
 </calculation>
 <structure name="finalpos" >
  <crystal>
   <varray name="basis" >
    <v>       8.42830000       0.00000000       0.00000000 </v>
    <v>       0.00000000      14.59820000       0.00000000 </v>
    <v>       0.00000000       0.00000000      16.58321000 </v>
   </varray>
   <i name="volume">   2040.36514222 </i>
   <varray name="rec_basis" >
    <v>       0.11864789       0.00000000       0.00000000 </v>
    <v>       0.00000000       0.06850160       0.00000000 </v>
    <v>       0.00000000       0.00000000       0.06030196 </v>
   </varray>
  </crystal>
  <varray name="positions" >
   <v>       0.83333500       0.67754300       0.78930800 </v>
   <v>       0.00000000       0.84420700       0.78999400 </v>
   <v>       0.16666700       0.67754300       0.78930800 </v>
   <v>       0.66666800       0.84420700       0.78999400 </v>
   <v>       0.50000100       0.67754300       0.78930800 </v>
   <v>       0.33333400       0.84420700       0.78999400 </v>
   <v>       0.68026100       0.83333600       0.08660300 </v>
   <v>       0.01359400       0.83333600       0.18854400 </v>
   <v>       0.18025900       0.00000000       0.08660300 </v>
   <v>       0.51359300       0.00000000       0.18854400 </v>
   <v>       0.68026100       0.16666700       0.08660300 </v>
   <v>       0.18025900       0.33333300       0.08660300 </v>
   <v>       0.51359300       0.33333300       0.18854400 </v>
   <v>       0.01359400       0.16666700       0.18854400 </v>
   <v>       0.68026100       0.50000000       0.08660300 </v>
   <v>       0.18025900       0.66666600       0.08660300 </v>
   <v>       0.51359300       0.66666600       0.18854400 </v>
   <v>       0.01359400       0.50000000       0.18854400 </v>
   <v>       0.01359400       0.16666700       0.32676700 </v>
   <v>       0.84692800       0.33333300       0.21815900 </v>
   <v>       0.51359300       0.66666600       0.32676700 </v>
   <v>       0.34692800       0.50000000       0.21815900 </v>
   <v>       0.51359300       0.33333300       0.32676700 </v>
   <v>       0.34692800       0.16666700       0.35638700 </v>
   <v>       0.34692800       0.16666700       0.21815900 </v>
   <v>       0.01359400       0.50000000       0.32676700 </v>
   <v>       0.51359300       0.00000000       0.32676700 </v>
   <v>       0.68003148       0.15659636       0.43395161 </v>
   <v>       0.83882188       0.35241637       0.51496617 </v>
   <v>       0.34692800       0.50000000       0.35638700 </v>
   <v>       0.06275697       0.73147508       0.46875167 </v>
   <v>       0.01359400       0.83333600       0.32676700 </v>
   <v>       0.34692800       0.83333600       0.35638700 </v>
   <v>       0.32733940       0.37228313       0.46285806 </v>
   <v>       0.84692800       0.66666700       0.35638700 </v>
   <v>       0.84692800       0.66666700       0.21815900 </v>
   <v>       0.34692800       0.83333600       0.21815900 </v>
   <v>       0.84692800       0.00000000       0.21815900 </v>
   <v>       0.84692800       0.33333300       0.35638700 </v>
   <v>       0.34692800       0.83333600       0.05698300 </v>
   <v>       0.34692800       0.16666700       0.05698300 </v>
   <v>       0.34692800       0.50000000       0.05698300 </v>
   <v>       0.84692800       0.33333300       0.05698300 </v>
   <v>       0.84692800       0.66666700       0.05698300 </v>
   <v>       0.84692800       0.00000000       0.05698300 </v>
   <v>       0.71587075       0.84640781       0.45800190 </v>
   <v>       0.16666700       0.90048800       0.64988900 </v>
   <v>       0.84692800       0.00000000       0.35638700 </v>
   <v>       0.83479597       0.02587490       0.51097802 </v>
   <v>       0.66666800       0.06715700       0.64645100 </v>
   <v>       0.00000000       0.73382300       0.64920200 </v>
   <v>       0.33333400       0.06715700       0.64645100 </v>
   <v>       0.33333400       0.40049000       0.64782600 </v>
   <v>       0.66666800       0.40049000       0.64782600 </v>
   <v>       0.16666700       0.23382400       0.64714600 </v>
   <v>       0.16666700       0.56715700       0.64851200 </v>
   <v>       0.83333500       0.56715700       0.64851200 </v>
   <v>       0.66666800       0.73382300       0.64920200 </v>
   <v>       0.33333400       0.73382300       0.64920200 </v>
   <v>       0.83333500       0.23382400       0.64714600 </v>
   <v>       0.50000100       0.23382400       0.64714600 </v>
   <v>       0.00000000       0.40049000       0.64782600 </v>
   <v>       0.50000100       0.56715700       0.64851200 </v>
   <v>       0.50000100       0.90048800       0.64988900 </v>
   <v>       0.83333500       0.90048800       0.64988900 </v>
   <v>       0.00000000       0.95459700       0.93078000 </v>
   <v>       0.50000100       0.78792600       0.93010000 </v>
   <v>       0.00000000       0.62126200       0.92941400 </v>
   <v>       0.50000100       0.45459500       0.92872500 </v>
   <v>       0.00000000       0.28792900       0.92803900 </v>
   <v>       0.50000100       0.12126200       0.92735000 </v>
   <v>       0.66666800       0.95459700       0.93078000 </v>
   <v>       0.16666700       0.78792600       0.93010000 </v>
   <v>       0.66666800       0.62126200       0.92941400 </v>
   <v>       0.16666700       0.45459500       0.92872500 </v>
   <v>       0.00000000       0.06715700       0.64645100 </v>
   <v>       0.66666800       0.28792900       0.92803900 </v>
   <v>       0.16666700       0.12126200       0.92735000 </v>
   <v>       0.33333400       0.95459700       0.93078000 </v>
   <v>       0.83333500       0.78792600       0.93010000 </v>
   <v>       0.33333400       0.62126200       0.92941400 </v>
   <v>       0.83333500       0.45459500       0.92872500 </v>
   <v>       0.33333400       0.28792900       0.92803900 </v>
   <v>       0.50000100       0.01087700       0.78655700 </v>
   <v>       0.83333500       0.01087700       0.78655700 </v>
   <v>       0.16666700       0.01087700       0.78655700 </v>
   <v>       0.83333500       0.12126200       0.92735000 </v>
   <v>       0.66666800       0.17754300       0.78724600 </v>
   <v>       0.00000000       0.17754300       0.78724600 </v>
   <v>       0.33333400       0.17754300       0.78724600 </v>
   <v>       0.83333500       0.34421000       0.78793300 </v>
   <v>       0.16666700       0.34421000       0.78793300 </v>
   <v>       0.66666800       0.51087600       0.78861900 </v>
   <v>       0.00000000       0.51087600       0.78861900 </v>
   <v>       0.50000100       0.34421000       0.78793300 </v>
   <v>       0.33333400       0.51087600       0.78861900 </v>
   <v>       0.69385400       0.94897300       0.13757100 </v>
   <v>       0.84692800       0.76871800       0.13757100 </v>
   <v>       0.50000000       0.78230900       0.13757100 </v>
   <v>       0.00000000       0.94897300       0.13757100 </v>
   <v>       0.19385400       0.11564200       0.13757100 </v>
   <v>       0.34692800       0.93538200       0.13757100 </v>
   <v>       0.69385400       0.28230900       0.13757100 </v>
   <v>       0.84692800       0.10204900       0.13757100 </v>
   <v>       0.50000000       0.11564300       0.13757100 </v>
   <v>       0.00000000       0.28230900       0.13757100 </v>
   <v>       0.19385400       0.44897600       0.13757100 </v>
   <v>       0.34692800       0.26871500       0.13757100 </v>
   <v>       0.69385400       0.61564200       0.13757100 </v>
   <v>       0.84692800       0.43538200       0.13757100 </v>
   <v>       0.50000000       0.44897600       0.13757100 </v>
   <v>       0.00000000       0.61564200       0.13757100 </v>
   <v>       0.19385400       0.78230900       0.13757100 </v>
   <v>       0.34692800       0.60204800       0.13757100 </v>
   <v>       0.86052100       0.21769100       0.26913200 </v>
   <v>       0.16666700       0.21769100       0.26913200 </v>
   <v>       0.01359400       0.06461800       0.26913200 </v>
   <v>       0.51359300       0.56461800       0.26913200 </v>
   <v>       0.36052100       0.71769100       0.26913200 </v>
   <v>       0.66666700       0.71769100       0.26913200 </v>
   <v>       0.51359300       0.23128500       0.26913200 </v>
   <v>       0.36052100       0.38435800       0.26913200 </v>
   <v>       0.66666700       0.38435800       0.26913200 </v>
   <v>       0.34400100       0.28704100       0.38917400 </v>
   <v>       0.01359400       0.39795100       0.26913200 </v>
   <v>       0.16666700       0.55102500       0.26913200 </v>
   <v>       0.86052100       0.55102500       0.26913200 </v>
   <v>       0.51359300       0.89795300       0.26913200 </v>
   <v>       0.36052100       0.05102500       0.26913200 </v>
   <v>       0.66666700       0.05102500       0.26913200 </v>
   <v>       0.50734300       0.08999500       0.40984600 </v>
   <v>       0.18550600       0.42958900       0.39559700 </v>
   <v>       0.74020574       0.80622747       0.56096262 </v>
   <v>       0.06435000       0.92266200       0.41062800 </v>
   <v>       0.20802900       0.94701400       0.40909200 </v>
   <v>       0.87867100       0.78180900       0.40160900 </v>
   <v>       0.16666700       0.88435600       0.26913200 </v>
   <v>       0.86052100       0.88435600       0.26913200 </v>
   <v>       0.01359400       0.73128200       0.26913200 </v>
   <v>       0.16571800       0.77223900       0.38400600 </v>
   <v>       0.17312663       0.00875948       0.59451398 </v>
   <v>       0.49899000       0.42768300       0.40817600 </v>
   <v>       0.33293470       0.62329163       0.59443673 </v>
   <v>       0.18548000       0.08179800       0.38605500 </v>
   <v>       0.66346100       0.26827800       0.39211000 </v>
   <v>       0.05341600       0.63734400       0.40240300 </v>
  </varray>
  <varray name="selective"  type="logical" >
   <v type="logical" >  F  F  F </v>
   <v type="logical" >  F  F  F </v>
   <v type="logical" >  F  F  F </v>
   <v type="logical" >  F  F  F </v>
   <v type="logical" >  F  F  F </v>
   <v type="logical" >  F  F  F </v>
   <v type="logical" >  F  F  F </v>
   <v type="logical" >  F  F  F </v>
   <v type="logical" >  F  F  F </v>
   <v type="logical" >  F  F  F </v>
   <v type="logical" >  F  F  F </v>
   <v type="logical" >  F  F  F </v>
   <v type="logical" >  F  F  F </v>
   <v type="logical" >  F  F  F </v>
   <v type="logical" >  F  F  F </v>
   <v type="logical" >  F  F  F </v>
   <v type="logical" >  F  F  F </v>
   <v type="logical" >  F  F  F </v>
   <v type="logical" >  F  F  F </v>
   <v type="logical" >  F  F  F </v>
   <v type="logical" >  F  F  F </v>
   <v type="logical" >  F  F  F </v>
   <v type="logical" >  F  F  F </v>
   <v type="logical" >  F  F  F </v>
   <v type="logical" >  F  F  F </v>
   <v type="logical" >  F  F  F </v>
   <v type="logical" >  F  F  F </v>
   <v type="logical" >  T  T  T </v>
   <v type="logical" >  T  T  T </v>
   <v type="logical" >  F  F  F </v>
   <v type="logical" >  T  T  T </v>
   <v type="logical" >  F  F  F </v>
   <v type="logical" >  F  F  F </v>
   <v type="logical" >  T  T  T </v>
   <v type="logical" >  F  F  F </v>
   <v type="logical" >  F  F  F </v>
   <v type="logical" >  F  F  F </v>
   <v type="logical" >  F  F  F </v>
   <v type="logical" >  F  F  F </v>
   <v type="logical" >  F  F  F </v>
   <v type="logical" >  F  F  F </v>
   <v type="logical" >  F  F  F </v>
   <v type="logical" >  F  F  F </v>
   <v type="logical" >  F  F  F </v>
   <v type="logical" >  F  F  F </v>
   <v type="logical" >  T  T  T </v>
   <v type="logical" >  F  F  F </v>
   <v type="logical" >  F  F  F </v>
   <v type="logical" >  T  T  T </v>
   <v type="logical" >  F  F  F </v>
   <v type="logical" >  F  F  F </v>
   <v type="logical" >  F  F  F </v>
   <v type="logical" >  F  F  F </v>
   <v type="logical" >  F  F  F </v>
   <v type="logical" >  F  F  F </v>
   <v type="logical" >  F  F  F </v>
   <v type="logical" >  F  F  F </v>
   <v type="logical" >  F  F  F </v>
   <v type="logical" >  F  F  F </v>
   <v type="logical" >  F  F  F </v>
   <v type="logical" >  F  F  F </v>
   <v type="logical" >  F  F  F </v>
   <v type="logical" >  F  F  F </v>
   <v type="logical" >  F  F  F </v>
   <v type="logical" >  F  F  F </v>
   <v type="logical" >  F  F  F </v>
   <v type="logical" >  F  F  F </v>
   <v type="logical" >  F  F  F </v>
   <v type="logical" >  F  F  F </v>
   <v type="logical" >  F  F  F </v>
   <v type="logical" >  F  F  F </v>
   <v type="logical" >  F  F  F </v>
   <v type="logical" >  F  F  F </v>
   <v type="logical" >  F  F  F </v>
   <v type="logical" >  F  F  F </v>
   <v type="logical" >  F  F  F </v>
   <v type="logical" >  F  F  F </v>
   <v type="logical" >  F  F  F </v>
   <v type="logical" >  F  F  F </v>
   <v type="logical" >  F  F  F </v>
   <v type="logical" >  F  F  F </v>
   <v type="logical" >  F  F  F </v>
   <v type="logical" >  F  F  F </v>
   <v type="logical" >  F  F  F </v>
   <v type="logical" >  F  F  F </v>
   <v type="logical" >  F  F  F </v>
   <v type="logical" >  F  F  F </v>
   <v type="logical" >  F  F  F </v>
   <v type="logical" >  F  F  F </v>
   <v type="logical" >  F  F  F </v>
   <v type="logical" >  F  F  F </v>
   <v type="logical" >  F  F  F </v>
   <v type="logical" >  F  F  F </v>
   <v type="logical" >  F  F  F </v>
   <v type="logical" >  F  F  F </v>
   <v type="logical" >  F  F  F </v>
   <v type="logical" >  F  F  F </v>
   <v type="logical" >  F  F  F </v>
   <v type="logical" >  F  F  F </v>
   <v type="logical" >  F  F  F </v>
   <v type="logical" >  F  F  F </v>
   <v type="logical" >  F  F  F </v>
   <v type="logical" >  F  F  F </v>
   <v type="logical" >  F  F  F </v>
   <v type="logical" >  F  F  F </v>
   <v type="logical" >  F  F  F </v>
   <v type="logical" >  F  F  F </v>
   <v type="logical" >  F  F  F </v>
   <v type="logical" >  F  F  F </v>
   <v type="logical" >  F  F  F </v>
   <v type="logical" >  F  F  F </v>
   <v type="logical" >  F  F  F </v>
   <v type="logical" >  F  F  F </v>
   <v type="logical" >  F  F  F </v>
   <v type="logical" >  F  F  F </v>
   <v type="logical" >  F  F  F </v>
   <v type="logical" >  F  F  F </v>
   <v type="logical" >  F  F  F </v>
   <v type="logical" >  F  F  F </v>
   <v type="logical" >  F  F  F </v>
   <v type="logical" >  F  F  F </v>
   <v type="logical" >  F  F  F </v>
   <v type="logical" >  F  F  F </v>
   <v type="logical" >  F  F  F </v>
   <v type="logical" >  F  F  F </v>
   <v type="logical" >  F  F  F </v>
   <v type="logical" >  F  F  F </v>
   <v type="logical" >  F  F  F </v>
   <v type="logical" >  F  F  F </v>
   <v type="logical" >  F  F  F </v>
   <v type="logical" >  F  F  F </v>
   <v type="logical" >  F  F  F </v>
   <v type="logical" >  T  T  T </v>
   <v type="logical" >  F  F  F </v>
   <v type="logical" >  F  F  F </v>
   <v type="logical" >  F  F  F </v>
   <v type="logical" >  F  F  F </v>
   <v type="logical" >  F  F  F </v>
   <v type="logical" >  F  F  F </v>
   <v type="logical" >  F  F  F </v>
   <v type="logical" >  T  T  T </v>
   <v type="logical" >  F  F  F </v>
   <v type="logical" >  T  T  T </v>
   <v type="logical" >  F  F  F </v>
   <v type="logical" >  F  F  F </v>
   <v type="logical" >  F  F  F </v>
  </varray>
  <nose>
   <v>      -3.00000000       0.00000000       0.00010000       0.00010000 </v>
  </nose>
 </structure>
</modeling>
