Al_Al2O3                                
           1
     8.428300    0.000000    0.000000
     0.000000   14.598200    0.000000
     0.000000    0.000000   16.583210
   Al   O 
  96  50
Direct configuration=     1
   0.83333500  0.67754300  0.78930800
   0.00000000  0.84420700  0.78999400
   0.16666700  0.67754300  0.78930800
   0.66666800  0.84420700  0.78999400
   0.50000100  0.67754300  0.78930800
   0.33333400  0.84420700  0.78999400
   0.68026100  0.83333600  0.08660300
   0.01359400  0.83333600  0.18854400
   0.18025900  0.00000000  0.08660300
   0.51359300  0.00000000  0.18854400
   0.68026100  0.16666700  0.08660300
   0.18025900  0.33333300  0.08660300
   0.51359300  0.33333300  0.18854400
   0.01359400  0.16666700  0.18854400
   0.68026100  0.50000000  0.08660300
   0.18025900  0.66666600  0.08660300
   0.51359300  0.66666600  0.18854400
   0.01359400  0.50000000  0.18854400
   0.01359400  0.16666700  0.32676700
   0.84692800  0.33333300  0.21815900
   0.51359300  0.66666600  0.32676700
   0.34692800  0.50000000  0.21815900
   0.51359300  0.33333300  0.32676700
   0.34692800  0.16666700  0.35638700
   0.34692800  0.16666700  0.21815900
   0.01359400  0.50000000  0.32676700
   0.51359300  0.00000000  0.32676700
   0.66666800  0.17754300  0.53694800
   0.84013200  0.33877200  0.51384600
   0.34692800  0.50000000  0.35638700
   0.00679700  0.83877200  0.45458000
   0.01359400  0.83333600  0.32676700
   0.34692800  0.83333600  0.35638700
   0.16666700  0.34421000  0.53749700
   0.84692800  0.66666700  0.35638700
   0.84692800  0.66666700  0.21815900
   0.34692800  0.83333600  0.21815900
   0.84692800  0.00000000  0.21815900
   0.84692800  0.33333300  0.35638700
   0.34692800  0.83333600  0.05698300
   0.34692800  0.16666700  0.05698300
   0.34692800  0.50000000  0.05698300
   0.84692800  0.33333300  0.05698300
   0.84692800  0.66666700  0.05698300
   0.84692800  0.00000000  0.05698300
   0.66666800  0.84420700  0.53914600
   0.16666700  0.90048800  0.64988900
   0.84692800  0.00000000  0.35638700
   0.84013200  0.00543800  0.51329500
   0.66666800  0.06715700  0.64645100
   0.00000000  0.73382300  0.64920200
   0.33333400  0.06715700  0.64645100
   0.33333400  0.40049000  0.64782600
   0.66666800  0.40049000  0.64782600
   0.16666700  0.23382400  0.64714600
   0.16666700  0.56715700  0.64851200
   0.83333500  0.56715700  0.64851200
   0.66666800  0.73382300  0.64920200
   0.33333400  0.73382300  0.64920200
   0.83333500  0.23382400  0.64714600
   0.50000100  0.23382400  0.64714600
   0.00000000  0.40049000  0.64782600
   0.50000100  0.56715700  0.64851200
   0.50000100  0.90048800  0.64988900
   0.83333500  0.90048800  0.64988900
   0.00000000  0.95459700  0.93078000
   0.50000100  0.78792600  0.93010000
   0.00000000  0.62126200  0.92941400
   0.50000100  0.45459500  0.92872500
   0.00000000  0.28792900  0.92803900
   0.50000100  0.12126200  0.92735000
   0.66666800  0.95459700  0.93078000
   0.16666700  0.78792600  0.93010000
   0.66666800  0.62126200  0.92941400
   0.16666700  0.45459500  0.92872500
   0.00000000  0.06715700  0.64645100
   0.66666800  0.28792900  0.92803900
   0.16666700  0.12126200  0.92735000
   0.33333400  0.95459700  0.93078000
   0.83333500  0.78792600  0.93010000
   0.33333400  0.62126200  0.92941400
   0.83333500  0.45459500  0.92872500
   0.33333400  0.28792900  0.92803900
   0.50000100  0.01087700  0.78655700
   0.83333500  0.01087700  0.78655700
   0.16666700  0.01087700  0.78655700
   0.83333500  0.12126200  0.92735000
   0.66666800  0.17754300  0.78724600
   0.00000000  0.17754300  0.78724600
   0.33333400  0.17754300  0.78724600
   0.83333500  0.34421000  0.78793300
   0.16666700  0.34421000  0.78793300
   0.66666800  0.51087600  0.78861900
   0.00000000  0.51087600  0.78861900
   0.50000100  0.34421000  0.78793300
   0.33333400  0.51087600  0.78861900
   0.69385400  0.94897300  0.13757100
   0.84692800  0.76871800  0.13757100
   0.50000000  0.78230900  0.13757100
   0.00000000  0.94897300  0.13757100
   0.19385400  0.11564200  0.13757100
   0.34692800  0.93538200  0.13757100
   0.69385400  0.28230900  0.13757100
   0.84692800  0.10204900  0.13757100
   0.50000000  0.11564300  0.13757100
   0.00000000  0.28230900  0.13757100
   0.19385400  0.44897600  0.13757100
   0.34692800  0.26871500  0.13757100
   0.69385400  0.61564200  0.13757100
   0.84692800  0.43538200  0.13757100
   0.50000000  0.44897600  0.13757100
   0.00000000  0.61564200  0.13757100
   0.19385400  0.78230900  0.13757100
   0.34692800  0.60204800  0.13757100
   0.86052100  0.21769100  0.26913200
   0.16666700  0.21769100  0.26913200
   0.01359400  0.06461800  0.26913200
   0.51359300  0.56461800  0.26913200
   0.36052100  0.71769100  0.26913200
   0.66666700  0.71769100  0.26913200
   0.51359300  0.23128500  0.26913200
   0.36052100  0.38435800  0.26913200
   0.66666700  0.38435800  0.26913200
   0.34400100  0.28704100  0.38917400
   0.01359400  0.39795100  0.26913200
   0.16666700  0.55102500  0.26913200
   0.86052100  0.55102500  0.26913200
   0.51359300  0.89795300  0.26913200
   0.36052100  0.05102500  0.26913200
   0.66666700  0.05102500  0.26913200
   0.50734300  0.08999500  0.40984600
   0.18550600  0.42958900  0.39559700
   0.87867100  0.78180900  0.52637200
   0.06435000  0.92266200  0.41062800
   0.20802900  0.94701400  0.40909200
   0.87867100  0.78180900  0.40160900
   0.16666700  0.88435600  0.26913200
   0.86052100  0.88435600  0.26913200
   0.01359400  0.73128200  0.26913200
   0.16571800  0.77223900  0.38400600
   0.18548000  0.08179800  0.51392800
   0.49899000  0.42768300  0.40817600
   0.18550600  0.42958900  0.52156200
   0.18548000  0.08179800  0.38605500
   0.66346100  0.26827800  0.39211000
   0.05341600  0.63734400  0.40240300
Direct configuration=     2
   0.83333500  0.67754300  0.78930800
   0.00000000  0.84420700  0.78999400
   0.16666700  0.67754300  0.78930800
   0.66666800  0.84420700  0.78999400
   0.50000100  0.67754300  0.78930800
   0.33333400  0.84420700  0.78999400
   0.68026100  0.83333600  0.08660300
   0.01359400  0.83333600  0.18854400
   0.18025900  0.00000000  0.08660300
   0.51359300  0.00000000  0.18854400
   0.68026100  0.16666700  0.08660300
   0.18025900  0.33333300  0.08660300
   0.51359300  0.33333300  0.18854400
   0.01359400  0.16666700  0.18854400
   0.68026100  0.50000000  0.08660300
   0.18025900  0.66666600  0.08660300
   0.51359300  0.66666600  0.18854400
   0.01359400  0.50000000  0.18854400
   0.01359400  0.16666700  0.32676700
   0.84692800  0.33333300  0.21815900
   0.51359300  0.66666600  0.32676700
   0.34692800  0.50000000  0.21815900
   0.51359300  0.33333300  0.32676700
   0.34692800  0.16666700  0.35638700
   0.34692800  0.16666700  0.21815900
   0.01359400  0.50000000  0.32676700
   0.51359300  0.00000000  0.32676700
   0.66298003  0.17714461  0.52390740
   0.83545969  0.33841411  0.51160775
   0.34692800  0.50000000  0.35638700
   0.00285001  0.80474952  0.48723157
   0.01359400  0.83333600  0.32676700
   0.34692800  0.83333600  0.35638700
   0.14554350  0.22857658  0.54468891
   0.84692800  0.66666700  0.35638700
   0.84692800  0.66666700  0.21815900
   0.34692800  0.83333600  0.21815900
   0.84692800  0.00000000  0.21815900
   0.84692800  0.33333300  0.35638700
   0.34692800  0.83333600  0.05698300
   0.34692800  0.16666700  0.05698300
   0.34692800  0.50000000  0.05698300
   0.84692800  0.33333300  0.05698300
   0.84692800  0.66666700  0.05698300
   0.84692800  0.00000000  0.05698300
   0.67296578  0.84277009  0.52890175
   0.16666700  0.90048800  0.64988900
   0.84692800  0.00000000  0.35638700
   0.83786806  0.00821346  0.51292256
   0.66666800  0.06715700  0.64645100
   0.00000000  0.73382300  0.64920200
   0.33333400  0.06715700  0.64645100
   0.33333400  0.40049000  0.64782600
   0.66666800  0.40049000  0.64782600
   0.16666700  0.23382400  0.64714600
   0.16666700  0.56715700  0.64851200
   0.83333500  0.56715700  0.64851200
   0.66666800  0.73382300  0.64920200
   0.33333400  0.73382300  0.64920200
   0.83333500  0.23382400  0.64714600
   0.50000100  0.23382400  0.64714600
   0.00000000  0.40049000  0.64782600
   0.50000100  0.56715700  0.64851200
   0.50000100  0.90048800  0.64988900
   0.83333500  0.90048800  0.64988900
   0.00000000  0.95459700  0.93078000
   0.50000100  0.78792600  0.93010000
   0.00000000  0.62126200  0.92941400
   0.50000100  0.45459500  0.92872500
   0.00000000  0.28792900  0.92803900
   0.50000100  0.12126200  0.92735000
   0.66666800  0.95459700  0.93078000
   0.16666700  0.78792600  0.93010000
   0.66666800  0.62126200  0.92941400
   0.16666700  0.45459500  0.92872500
   0.00000000  0.06715700  0.64645100
   0.66666800  0.28792900  0.92803900
   0.16666700  0.12126200  0.92735000
   0.33333400  0.95459700  0.93078000
   0.83333500  0.78792600  0.93010000
   0.33333400  0.62126200  0.92941400
   0.83333500  0.45459500  0.92872500
   0.33333400  0.28792900  0.92803900
   0.50000100  0.01087700  0.78655700
   0.83333500  0.01087700  0.78655700
   0.16666700  0.01087700  0.78655700
   0.83333500  0.12126200  0.92735000
   0.66666800  0.17754300  0.78724600
   0.00000000  0.17754300  0.78724600
   0.33333400  0.17754300  0.78724600
   0.83333500  0.34421000  0.78793300
   0.16666700  0.34421000  0.78793300
   0.66666800  0.51087600  0.78861900
   0.00000000  0.51087600  0.78861900
   0.50000100  0.34421000  0.78793300
   0.33333400  0.51087600  0.78861900
   0.69385400  0.94897300  0.13757100
   0.84692800  0.76871800  0.13757100
   0.50000000  0.78230900  0.13757100
   0.00000000  0.94897300  0.13757100
   0.19385400  0.11564200  0.13757100
   0.34692800  0.93538200  0.13757100
   0.69385400  0.28230900  0.13757100
   0.84692800  0.10204900  0.13757100
   0.50000000  0.11564300  0.13757100
   0.00000000  0.28230900  0.13757100
   0.19385400  0.44897600  0.13757100
   0.34692800  0.26871500  0.13757100
   0.69385400  0.61564200  0.13757100
   0.84692800  0.43538200  0.13757100
   0.50000000  0.44897600  0.13757100
   0.00000000  0.61564200  0.13757100
   0.19385400  0.78230900  0.13757100
   0.34692800  0.60204800  0.13757100
   0.86052100  0.21769100  0.26913200
   0.16666700  0.21769100  0.26913200
   0.01359400  0.06461800  0.26913200
   0.51359300  0.56461800  0.26913200
   0.36052100  0.71769100  0.26913200
   0.66666700  0.71769100  0.26913200
   0.51359300  0.23128500  0.26913200
   0.36052100  0.38435800  0.26913200
   0.66666700  0.38435800  0.26913200
   0.34400100  0.28704100  0.38917400
   0.01359400  0.39795100  0.26913200
   0.16666700  0.55102500  0.26913200
   0.86052100  0.55102500  0.26913200
   0.51359300  0.89795300  0.26913200
   0.36052100  0.05102500  0.26913200
   0.66666700  0.05102500  0.26913200
   0.50734300  0.08999500  0.40984600
   0.18550600  0.42958900  0.39559700
   0.87885399  0.78405909  0.54103202
   0.06435000  0.92266200  0.41062800
   0.20802900  0.94701400  0.40909200
   0.87867100  0.78180900  0.40160900
   0.16666700  0.88435600  0.26913200
   0.86052100  0.88435600  0.26913200
   0.01359400  0.73128200  0.26913200
   0.16571800  0.77223900  0.38400600
   0.18156973  0.08291863  0.52096575
   0.49899000  0.42768300  0.40817600
   0.21305575  0.54563430  0.50869182
   0.18548000  0.08179800  0.38605500
   0.66346100  0.26827800  0.39211000
   0.05341600  0.63734400  0.40240300
Direct configuration=     3
   0.83333500  0.67754300  0.78930800
   0.00000000  0.84420700  0.78999400
   0.16666700  0.67754300  0.78930800
   0.66666800  0.84420700  0.78999400
   0.50000100  0.67754300  0.78930800
   0.33333400  0.84420700  0.78999400
   0.68026100  0.83333600  0.08660300
   0.01359400  0.83333600  0.18854400
   0.18025900  0.00000000  0.08660300
   0.51359300  0.00000000  0.18854400
   0.68026100  0.16666700  0.08660300
   0.18025900  0.33333300  0.08660300
   0.51359300  0.33333300  0.18854400
   0.01359400  0.16666700  0.18854400
   0.68026100  0.50000000  0.08660300
   0.18025900  0.66666600  0.08660300
   0.51359300  0.66666600  0.18854400
   0.01359400  0.50000000  0.18854400
   0.01359400  0.16666700  0.32676700
   0.84692800  0.33333300  0.21815900
   0.51359300  0.66666600  0.32676700
   0.34692800  0.50000000  0.21815900
   0.51359300  0.33333300  0.32676700
   0.34692800  0.16666700  0.35638700
   0.34692800  0.16666700  0.21815900
   0.01359400  0.50000000  0.32676700
   0.51359300  0.00000000  0.32676700
   0.66304484  0.17715161  0.52413657
   0.83554179  0.33842040  0.51164709
   0.34692800  0.50000000  0.35638700
   0.00291937  0.80534740  0.48665778
   0.01359400  0.83333600  0.32676700
   0.34692800  0.83333600  0.35638700
   0.14591470  0.23060862  0.54456253
   0.84692800  0.66666700  0.35638700
   0.84692800  0.66666700  0.21815900
   0.34692800  0.83333600  0.21815900
   0.84692800  0.00000000  0.21815900
   0.84692800  0.33333300  0.35638700
   0.34692800  0.83333600  0.05698300
   0.34692800  0.16666700  0.05698300
   0.34692800  0.50000000  0.05698300
   0.84692800  0.33333300  0.05698300
   0.84692800  0.66666700  0.05698300
   0.84692800  0.00000000  0.05698300
   0.67285511  0.84279534  0.52908177
   0.16666700  0.90048800  0.64988900
   0.84692800  0.00000000  0.35638700
   0.83790785  0.00816468  0.51292911
   0.66666800  0.06715700  0.64645100
   0.00000000  0.73382300  0.64920200
   0.33333400  0.06715700  0.64645100
   0.33333400  0.40049000  0.64782600
   0.66666800  0.40049000  0.64782600
   0.16666700  0.23382400  0.64714600
   0.16666700  0.56715700  0.64851200
   0.83333500  0.56715700  0.64851200
   0.66666800  0.73382300  0.64920200
   0.33333400  0.73382300  0.64920200
   0.83333500  0.23382400  0.64714600
   0.50000100  0.23382400  0.64714600
   0.00000000  0.40049000  0.64782600
   0.50000100  0.56715700  0.64851200
   0.50000100  0.90048800  0.64988900
   0.83333500  0.90048800  0.64988900
   0.00000000  0.95459700  0.93078000
   0.50000100  0.78792600  0.93010000
   0.00000000  0.62126200  0.92941400
   0.50000100  0.45459500  0.92872500
   0.00000000  0.28792900  0.92803900
   0.50000100  0.12126200  0.92735000
   0.66666800  0.95459700  0.93078000
   0.16666700  0.78792600  0.93010000
   0.66666800  0.62126200  0.92941400
   0.16666700  0.45459500  0.92872500
   0.00000000  0.06715700  0.64645100
   0.66666800  0.28792900  0.92803900
   0.16666700  0.12126200  0.92735000
   0.33333400  0.95459700  0.93078000
   0.83333500  0.78792600  0.93010000
   0.33333400  0.62126200  0.92941400
   0.83333500  0.45459500  0.92872500
   0.33333400  0.28792900  0.92803900
   0.50000100  0.01087700  0.78655700
   0.83333500  0.01087700  0.78655700
   0.16666700  0.01087700  0.78655700
   0.83333500  0.12126200  0.92735000
   0.66666800  0.17754300  0.78724600
   0.00000000  0.17754300  0.78724600
   0.33333400  0.17754300  0.78724600
   0.83333500  0.34421000  0.78793300
   0.16666700  0.34421000  0.78793300
   0.66666800  0.51087600  0.78861900
   0.00000000  0.51087600  0.78861900
   0.50000100  0.34421000  0.78793300
   0.33333400  0.51087600  0.78861900
   0.69385400  0.94897300  0.13757100
   0.84692800  0.76871800  0.13757100
   0.50000000  0.78230900  0.13757100
   0.00000000  0.94897300  0.13757100
   0.19385400  0.11564200  0.13757100
   0.34692800  0.93538200  0.13757100
   0.69385400  0.28230900  0.13757100
   0.84692800  0.10204900  0.13757100
   0.50000000  0.11564300  0.13757100
   0.00000000  0.28230900  0.13757100
   0.19385400  0.44897600  0.13757100
   0.34692800  0.26871500  0.13757100
   0.69385400  0.61564200  0.13757100
   0.84692800  0.43538200  0.13757100
   0.50000000  0.44897600  0.13757100
   0.00000000  0.61564200  0.13757100
   0.19385400  0.78230900  0.13757100
   0.34692800  0.60204800  0.13757100
   0.86052100  0.21769100  0.26913200
   0.16666700  0.21769100  0.26913200
   0.01359400  0.06461800  0.26913200
   0.51359300  0.56461800  0.26913200
   0.36052100  0.71769100  0.26913200
   0.66666700  0.71769100  0.26913200
   0.51359300  0.23128500  0.26913200
   0.36052100  0.38435800  0.26913200
   0.66666700  0.38435800  0.26913200
   0.34400100  0.28704100  0.38917400
   0.01359400  0.39795100  0.26913200
   0.16666700  0.55102500  0.26913200
   0.86052100  0.55102500  0.26913200
   0.51359300  0.89795300  0.26913200
   0.36052100  0.05102500  0.26913200
   0.66666700  0.05102500  0.26913200
   0.50734300  0.08999500  0.40984600
   0.18550600  0.42958900  0.39559700
   0.87885078  0.78401955  0.54077440
   0.06435000  0.92266200  0.41062800
   0.20802900  0.94701400  0.40909200
   0.87867100  0.78180900  0.40160900
   0.16666700  0.88435600  0.26913200
   0.86052100  0.88435600  0.26913200
   0.01359400  0.73128200  0.26913200
   0.16571800  0.77223900  0.38400600
   0.18163845  0.08289894  0.52084207
   0.49899000  0.42768300  0.40817600
   0.21257161  0.54359501  0.50891799
   0.18548000  0.08179800  0.38605500
   0.66346100  0.26827800  0.39211000
   0.05341600  0.63734400  0.40240300
Direct configuration=     4
   0.83333500  0.67754300  0.78930800
   0.00000000  0.84420700  0.78999400
   0.16666700  0.67754300  0.78930800
   0.66666800  0.84420700  0.78999400
   0.50000100  0.67754300  0.78930800
   0.33333400  0.84420700  0.78999400
   0.68026100  0.83333600  0.08660300
   0.01359400  0.83333600  0.18854400
   0.18025900  0.00000000  0.08660300
   0.51359300  0.00000000  0.18854400
   0.68026100  0.16666700  0.08660300
   0.18025900  0.33333300  0.08660300
   0.51359300  0.33333300  0.18854400
   0.01359400  0.16666700  0.18854400
   0.68026100  0.50000000  0.08660300
   0.18025900  0.66666600  0.08660300
   0.51359300  0.66666600  0.18854400
   0.01359400  0.50000000  0.18854400
   0.01359400  0.16666700  0.32676700
   0.84692800  0.33333300  0.21815900
   0.51359300  0.66666600  0.32676700
   0.34692800  0.50000000  0.21815900
   0.51359300  0.33333300  0.32676700
   0.34692800  0.16666700  0.35638700
   0.34692800  0.16666700  0.21815900
   0.01359400  0.50000000  0.32676700
   0.51359300  0.00000000  0.32676700
   0.65698210  0.17643371  0.50859025
   0.83300595  0.33859716  0.50867539
   0.34692800  0.50000000  0.35638700
   0.08225350  0.79886639  0.46165748
   0.01359400  0.83333600  0.32676700
   0.34692800  0.83333600  0.35638700
   0.12713121  0.16938395  0.48680464
   0.84692800  0.66666700  0.35638700
   0.84692800  0.66666700  0.21815900
   0.34692800  0.83333600  0.21815900
   0.84692800  0.00000000  0.21815900
   0.84692800  0.33333300  0.35638700
   0.34692800  0.83333600  0.05698300
   0.34692800  0.16666700  0.05698300
   0.34692800  0.50000000  0.05698300
   0.84692800  0.33333300  0.05698300
   0.84692800  0.66666700  0.05698300
   0.84692800  0.00000000  0.05698300
   0.67528562  0.84214656  0.51805773
   0.16666700  0.90048800  0.64988900
   0.84692800  0.00000000  0.35638700
   0.83566209  0.01042934  0.51170948
   0.66666800  0.06715700  0.64645100
   0.00000000  0.73382300  0.64920200
   0.33333400  0.06715700  0.64645100
   0.33333400  0.40049000  0.64782600
   0.66666800  0.40049000  0.64782600
   0.16666700  0.23382400  0.64714600
   0.16666700  0.56715700  0.64851200
   0.83333500  0.56715700  0.64851200
   0.66666800  0.73382300  0.64920200
   0.33333400  0.73382300  0.64920200
   0.83333500  0.23382400  0.64714600
   0.50000100  0.23382400  0.64714600
   0.00000000  0.40049000  0.64782600
   0.50000100  0.56715700  0.64851200
   0.50000100  0.90048800  0.64988900
   0.83333500  0.90048800  0.64988900
   0.00000000  0.95459700  0.93078000
   0.50000100  0.78792600  0.93010000
   0.00000000  0.62126200  0.92941400
   0.50000100  0.45459500  0.92872500
   0.00000000  0.28792900  0.92803900
   0.50000100  0.12126200  0.92735000
   0.66666800  0.95459700  0.93078000
   0.16666700  0.78792600  0.93010000
   0.66666800  0.62126200  0.92941400
   0.16666700  0.45459500  0.92872500
   0.00000000  0.06715700  0.64645100
   0.66666800  0.28792900  0.92803900
   0.16666700  0.12126200  0.92735000
   0.33333400  0.95459700  0.93078000
   0.83333500  0.78792600  0.93010000
   0.33333400  0.62126200  0.92941400
   0.83333500  0.45459500  0.92872500
   0.33333400  0.28792900  0.92803900
   0.50000100  0.01087700  0.78655700
   0.83333500  0.01087700  0.78655700
   0.16666700  0.01087700  0.78655700
   0.83333500  0.12126200  0.92735000
   0.66666800  0.17754300  0.78724600
   0.00000000  0.17754300  0.78724600
   0.33333400  0.17754300  0.78724600
   0.83333500  0.34421000  0.78793300
   0.16666700  0.34421000  0.78793300
   0.66666800  0.51087600  0.78861900
   0.00000000  0.51087600  0.78861900
   0.50000100  0.34421000  0.78793300
   0.33333400  0.51087600  0.78861900
   0.69385400  0.94897300  0.13757100
   0.84692800  0.76871800  0.13757100
   0.50000000  0.78230900  0.13757100
   0.00000000  0.94897300  0.13757100
   0.19385400  0.11564200  0.13757100
   0.34692800  0.93538200  0.13757100
   0.69385400  0.28230900  0.13757100
   0.84692800  0.10204900  0.13757100
   0.50000000  0.11564300  0.13757100
   0.00000000  0.28230900  0.13757100
   0.19385400  0.44897600  0.13757100
   0.34692800  0.26871500  0.13757100
   0.69385400  0.61564200  0.13757100
   0.84692800  0.43538200  0.13757100
   0.50000000  0.44897600  0.13757100
   0.00000000  0.61564200  0.13757100
   0.19385400  0.78230900  0.13757100
   0.34692800  0.60204800  0.13757100
   0.86052100  0.21769100  0.26913200
   0.16666700  0.21769100  0.26913200
   0.01359400  0.06461800  0.26913200
   0.51359300  0.56461800  0.26913200
   0.36052100  0.71769100  0.26913200
   0.66666700  0.71769100  0.26913200
   0.51359300  0.23128500  0.26913200
   0.36052100  0.38435800  0.26913200
   0.66666700  0.38435800  0.26913200
   0.34400100  0.28704100  0.38917400
   0.01359400  0.39795100  0.26913200
   0.16666700  0.55102500  0.26913200
   0.86052100  0.55102500  0.26913200
   0.51359300  0.89795300  0.26913200
   0.36052100  0.05102500  0.26913200
   0.66666700  0.05102500  0.26913200
   0.50734300  0.08999500  0.40984600
   0.18550600  0.42958900  0.39559700
   0.80846612  0.77152576  0.58566256
   0.06435000  0.92266200  0.41062800
   0.20802900  0.94701400  0.40909200
   0.87867100  0.78180900  0.40160900
   0.16666700  0.88435600  0.26913200
   0.86052100  0.88435600  0.26913200
   0.01359400  0.73128200  0.26913200
   0.16571800  0.77223900  0.38400600
   0.17615042  0.09048302  0.53246480
   0.49899000  0.42768300  0.40817600
   0.22594641  0.59700828  0.51060400
   0.18548000  0.08179800  0.38605500
   0.66346100  0.26827800  0.39211000
   0.05341600  0.63734400  0.40240300
Direct configuration=     5
   0.83333500  0.67754300  0.78930800
   0.00000000  0.84420700  0.78999400
   0.16666700  0.67754300  0.78930800
   0.66666800  0.84420700  0.78999400
   0.50000100  0.67754300  0.78930800
   0.33333400  0.84420700  0.78999400
   0.68026100  0.83333600  0.08660300
   0.01359400  0.83333600  0.18854400
   0.18025900  0.00000000  0.08660300
   0.51359300  0.00000000  0.18854400
   0.68026100  0.16666700  0.08660300
   0.18025900  0.33333300  0.08660300
   0.51359300  0.33333300  0.18854400
   0.01359400  0.16666700  0.18854400
   0.68026100  0.50000000  0.08660300
   0.18025900  0.66666600  0.08660300
   0.51359300  0.66666600  0.18854400
   0.01359400  0.50000000  0.18854400
   0.01359400  0.16666700  0.32676700
   0.84692800  0.33333300  0.21815900
   0.51359300  0.66666600  0.32676700
   0.34692800  0.50000000  0.21815900
   0.51359300  0.33333300  0.32676700
   0.34692800  0.16666700  0.35638700
   0.34692800  0.16666700  0.21815900
   0.01359400  0.50000000  0.32676700
   0.51359300  0.00000000  0.32676700
   0.65971761  0.17675762  0.51560476
   0.83415013  0.33851741  0.51001622
   0.34692800  0.50000000  0.35638700
   0.04645790  0.80179063  0.47293763
   0.01359400  0.83333600  0.32676700
   0.34692800  0.83333600  0.35638700
   0.13560634  0.19700856  0.51286503
   0.84692800  0.66666700  0.35638700
   0.84692800  0.66666700  0.21815900
   0.34692800  0.83333600  0.21815900
   0.84692800  0.00000000  0.21815900
   0.84692800  0.33333300  0.35638700
   0.34692800  0.83333600  0.05698300
   0.34692800  0.16666700  0.05698300
   0.34692800  0.50000000  0.05698300
   0.84692800  0.33333300  0.05698300
   0.84692800  0.66666700  0.05698300
   0.84692800  0.00000000  0.05698300
   0.67418897  0.84243929  0.52303179
   0.16666700  0.90048800  0.64988900
   0.84692800  0.00000000  0.35638700
   0.83667538  0.00940753  0.51225978
   0.66666800  0.06715700  0.64645100
   0.00000000  0.73382300  0.64920200
   0.33333400  0.06715700  0.64645100
   0.33333400  0.40049000  0.64782600
   0.66666800  0.40049000  0.64782600
   0.16666700  0.23382400  0.64714600
   0.16666700  0.56715700  0.64851200
   0.83333500  0.56715700  0.64851200
   0.66666800  0.73382300  0.64920200
   0.33333400  0.73382300  0.64920200
   0.83333500  0.23382400  0.64714600
   0.50000100  0.23382400  0.64714600
   0.00000000  0.40049000  0.64782600
   0.50000100  0.56715700  0.64851200
   0.50000100  0.90048800  0.64988900
   0.83333500  0.90048800  0.64988900
   0.00000000  0.95459700  0.93078000
   0.50000100  0.78792600  0.93010000
   0.00000000  0.62126200  0.92941400
   0.50000100  0.45459500  0.92872500
   0.00000000  0.28792900  0.92803900
   0.50000100  0.12126200  0.92735000
   0.66666800  0.95459700  0.93078000
   0.16666700  0.78792600  0.93010000
   0.66666800  0.62126200  0.92941400
   0.16666700  0.45459500  0.92872500
   0.00000000  0.06715700  0.64645100
   0.66666800  0.28792900  0.92803900
   0.16666700  0.12126200  0.92735000
   0.33333400  0.95459700  0.93078000
   0.83333500  0.78792600  0.93010000
   0.33333400  0.62126200  0.92941400
   0.83333500  0.45459500  0.92872500
   0.33333400  0.28792900  0.92803900
   0.50000100  0.01087700  0.78655700
   0.83333500  0.01087700  0.78655700
   0.16666700  0.01087700  0.78655700
   0.83333500  0.12126200  0.92735000
   0.66666800  0.17754300  0.78724600
   0.00000000  0.17754300  0.78724600
   0.33333400  0.17754300  0.78724600
   0.83333500  0.34421000  0.78793300
   0.16666700  0.34421000  0.78793300
   0.66666800  0.51087600  0.78861900
   0.00000000  0.51087600  0.78861900
   0.50000100  0.34421000  0.78793300
   0.33333400  0.51087600  0.78861900
   0.69385400  0.94897300  0.13757100
   0.84692800  0.76871800  0.13757100
   0.50000000  0.78230900  0.13757100
   0.00000000  0.94897300  0.13757100
   0.19385400  0.11564200  0.13757100
   0.34692800  0.93538200  0.13757100
   0.69385400  0.28230900  0.13757100
   0.84692800  0.10204900  0.13757100
   0.50000000  0.11564300  0.13757100
   0.00000000  0.28230900  0.13757100
   0.19385400  0.44897600  0.13757100
   0.34692800  0.26871500  0.13757100
   0.69385400  0.61564200  0.13757100
   0.84692800  0.43538200  0.13757100
   0.50000000  0.44897600  0.13757100
   0.00000000  0.61564200  0.13757100
   0.19385400  0.78230900  0.13757100
   0.34692800  0.60204800  0.13757100
   0.86052100  0.21769100  0.26913200
   0.16666700  0.21769100  0.26913200
   0.01359400  0.06461800  0.26913200
   0.51359300  0.56461800  0.26913200
   0.36052100  0.71769100  0.26913200
   0.66666700  0.71769100  0.26913200
   0.51359300  0.23128500  0.26913200
   0.36052100  0.38435800  0.26913200
   0.66666700  0.38435800  0.26913200
   0.34400100  0.28704100  0.38917400
   0.01359400  0.39795100  0.26913200
   0.16666700  0.55102500  0.26913200
   0.86052100  0.55102500  0.26913200
   0.51359300  0.89795300  0.26913200
   0.36052100  0.05102500  0.26913200
   0.66666700  0.05102500  0.26913200
   0.50734300  0.08999500  0.40984600
   0.18550600  0.42958900  0.39559700
   0.84022372  0.77716297  0.56540899
   0.06435000  0.92266200  0.41062800
   0.20802900  0.94701400  0.40909200
   0.87867100  0.78180900  0.40160900
   0.16666700  0.88435600  0.26913200
   0.86052100  0.88435600  0.26913200
   0.01359400  0.73128200  0.26913200
   0.16571800  0.77223900  0.38400600
   0.17862662  0.08706108  0.52722062
   0.49899000  0.42768300  0.40817600
   0.21991169  0.57290818  0.50984327
   0.18548000  0.08179800  0.38605500
   0.66346100  0.26827800  0.39211000
   0.05341600  0.63734400  0.40240300
Direct configuration=     6
   0.83333500  0.67754300  0.78930800
   0.00000000  0.84420700  0.78999400
   0.16666700  0.67754300  0.78930800
   0.66666800  0.84420700  0.78999400
   0.50000100  0.67754300  0.78930800
   0.33333400  0.84420700  0.78999400
   0.68026100  0.83333600  0.08660300
   0.01359400  0.83333600  0.18854400
   0.18025900  0.00000000  0.08660300
   0.51359300  0.00000000  0.18854400
   0.68026100  0.16666700  0.08660300
   0.18025900  0.33333300  0.08660300
   0.51359300  0.33333300  0.18854400
   0.01359400  0.16666700  0.18854400
   0.68026100  0.50000000  0.08660300
   0.18025900  0.66666600  0.08660300
   0.51359300  0.66666600  0.18854400
   0.01359400  0.50000000  0.18854400
   0.01359400  0.16666700  0.32676700
   0.84692800  0.33333300  0.21815900
   0.51359300  0.66666600  0.32676700
   0.34692800  0.50000000  0.21815900
   0.51359300  0.33333300  0.32676700
   0.34692800  0.16666700  0.35638700
   0.34692800  0.16666700  0.21815900
   0.01359400  0.50000000  0.32676700
   0.51359300  0.00000000  0.32676700
   0.65862716  0.17662850  0.51280858
   0.83369403  0.33854920  0.50948173
   0.34692800  0.50000000  0.35638700
   0.06072702  0.80062495  0.46844105
   0.01359400  0.83333600  0.32676700
   0.34692800  0.83333600  0.35638700
   0.13222791  0.18599662  0.50247663
   0.84692800  0.66666700  0.35638700
   0.84692800  0.66666700  0.21815900
   0.34692800  0.83333600  0.21815900
   0.84692800  0.00000000  0.21815900
   0.84692800  0.33333300  0.35638700
   0.34692800  0.83333600  0.05698300
   0.34692800  0.16666700  0.05698300
   0.34692800  0.50000000  0.05698300
   0.84692800  0.33333300  0.05698300
   0.84692800  0.66666700  0.05698300
   0.84692800  0.00000000  0.05698300
   0.67462612  0.84232260  0.52104899
   0.16666700  0.90048800  0.64988900
   0.84692800  0.00000000  0.35638700
   0.83627145  0.00981485  0.51204041
   0.66666800  0.06715700  0.64645100