ITEM: TIMESTEP
1089
ITEM: NUMBER OF ATOMS
18
ITEM: BOX BOUNDS ff ff ff
0.0000000000000000e+00 1.8000000000000000e+01
0.0000000000000000e+00 1.8000000000000000e+01
0.0000000000000000e+00 1.8000000000000000e+01
ITEM: ATOMS id type x y z c_peatom 
4 1 8.61335 7.7028 8.24261 -5.75829 
6 1 10.9741 8.21227 6.5599 -4.86547 
16 2 10.5951 7.61128 8.28498 -3.62588 
3 1 7.80342 10.7654 7.90523 -6.16677 
10 2 6.20473 10.6267 8.87081 -3.44698 
12 2 9.44322 9.29573 7.19103 -3.60433 
11 2 10.9312 11.482 8.63713 -2.68997 
1 1 10.6803 9.78784 8.80945 -7.77117 
13 2 12.0169 9.3765 7.42685 -3.44963 
17 2 8.34736 12.1164 8.72994 -3.04639 
5 1 7.43189 6.50259 10.5298 -3.90516 
14 2 6.75105 7.48032 9.15597 -4.17801 
7 1 9.25874 8.68941 11.0952 -5.69995 
18 2 9.12623 6.99112 10.0324 -4.26748 
2 1 6.64184 9.25132 10.057 -5.70465 
8 2 8.53183 9.35297 9.2939 -4.30252 
15 2 7.7908 9.82833 11.447 -3.38105 
9 2 10.8154 9.6352 10.7273 -3.26681 
