ITEM: TIMESTEP
875
ITEM: NUMBER OF ATOMS
18
ITEM: BOX BOUNDS ff ff ff
0.0000000000000000e+00 1.8000000000000000e+01
0.0000000000000000e+00 1.8000000000000000e+01
0.0000000000000000e+00 1.8000000000000000e+01
ITEM: ATOMS id type x y z c_peatom
1 1 8.06342 7.38573 7.23064 -5.15791
9 2 7.48471 8.91757 8.01004 -3.22097
2 1 10.7023 6.55217 7.59717 -4.57593
8 2 9.15817 6.96379 8.67315 -3.8325
10 2 9.72346 7.40751 6.17661 -4.32596
11 2 11.7193 8.16012 7.5977 -4.27735
12 2 8.10626 11.8372 8.86894 -3.2689
3 1 10.463 9.12551 6.53407 -4.47394
4 1 9.72785 11.5424 8.75272 -5.25043
13 2 9.67056 9.59369 8.22633 -4.24831
5 1 8.31892 8.69995 9.84111 -9.85467
14 2 7.29931 7.42472 10.4341 -2.50318
15 2 8.37303 8.92354 11.8868 -3.33755
16 2 10.2177 7.924 10.5526 -3.80848
17 2 7.181 9.98502 10.1652 -2.46555
6 1 11.1666 9.01933 9.34201 -5.3
18 2 9.91954 10.2907 10.3925 -3.68242
7 1 10.1154 9.17109 11.9992 -4.85847
