ITEM: TIMESTEP
961
ITEM: NUMBER OF ATOMS
18
ITEM: BOX BOUNDS ff ff ff
0.0000000000000000e+00 1.8000000000000000e+01
0.0000000000000000e+00 1.8000000000000000e+01
0.0000000000000000e+00 1.8000000000000000e+01
ITEM: ATOMS id type x y z c_peatom 
2 1 7.83565 8.44584 7.10503 -5.20244 
13 2 6.27755 8.04094 7.40162 -3.37086 
6 1 11.5813 6.58306 8.47351 -7.08634 
15 2 11.856 8.17551 8.01294 -2.82943 
16 2 10.3397 6.29521 7.34349 -2.7456 
3 1 6.43477 11.1999 8.32499 -2.67956 
8 2 7.86892 10.423 7.77632 -5.41935 
7 1 8.94717 11.8947 7.13928 -3.9537 
18 2 9.56406 12.1522 8.73643 -3.82753 
9 2 7.81488 7.86541 11.5045 -3.35083 
17 2 8.35691 8.60127 9.08045 -4.12899 
5 1 9.16685 7.27846 10.2523 -5.9233 
12 2 11.0735 6.99336 10.2823 -3.01091 
14 2 9.79379 8.85456 10.8907 -3.11125 
1 1 7.15895 9.29604 10.4953 -5.66024 
11 2 8.33333 10.6219 10.9291 -3.3745 
4 1 9.49307 10.2724 9.38098 -7.82145 
10 2 11.1861 9.93502 9.40687 -2.6561 
