ITEM: TIMESTEP
514
ITEM: NUMBER OF ATOMS
18
ITEM: BOX BOUNDS ff ff ff
0.0000000000000000e+00 1.8000000000000000e+01
0.0000000000000000e+00 1.8000000000000000e+01
0.0000000000000000e+00 1.8000000000000000e+01
ITEM: ATOMS id type x y z c_peatom
10 2 9.35252 9.15452 4.82138 -2.85835
17 2 7.5288 8.5973 8.90456 -3.69946
4 1 7.06535 8.38946 7.07186 -6.45744
8 2 10.9315 7.00087 8.211 -2.74535
12 2 9.13316 7.80971 7.02902 -3.46631
3 1 9.59365 7.76207 8.99863 -6.95114
15 2 5.51216 9.08982 7.25648 -2.78811
2 1 8.07262 10.395 8.87232 -5.61491
11 2 7.90523 10.087 6.80426 -3.69123
1 1 9.70615 9.5064 6.45136 -6.27458
13 2 9.83814 9.73189 8.77714 -3.78482
5 1 8.59992 7.56789 11.8393 -2.88343
6 1 11.2574 7.31308 11.4753 -3.88587
16 2 11.2335 8.42489 10.0484 -4.03959
14 2 8.34154 10.6671 10.7506 -3.1896
18 2 11.1507 11.2007 11.2144 -2.73954
7 1 10.072 9.8986 10.9003 -7.18582
9 2 10.0203 8.39432 12.3502 -5.33248
