ITEM: TIMESTEP
58
ITEM: NUMBER OF ATOMS
385
ITEM: BOX BOUNDS pp pp pp
0.0000000000000000e+00 8.4283000000000001e+00
0.0000000000000000e+00 1.4598200000000000e+01
0.0000000000000000e+00 4.9476269000000002e+01
ITEM: ATOMS id type x y z c_peatom
71 1 2.92401 12.1652 3.61953 -2.2941
72 1 7.13816 4.86606 3.61953 -2.29409
73 1 5.73344 7.2991 5.31004 -6.5982
74 1 7.13816 9.73214 3.61953 -2.29409
75 1 5.73344 12.1652 5.31004 -6.5982
76 1 7.13816 0 3.61953 -2.29408
77 1 5.73344 2.43304 5.31004 -6.5982
78 1 2.92401 7.2991 3.61953 -2.29408
79 1 1.51929 9.73212 5.31004 -6.59819
80 1 2.92401 2.43304 3.61953 -2.29408
81 1 1.51929 4.86606 5.31004 -6.5982
82 1 1.51929 0 5.31004 -6.59819
83 1 0.114574 7.2991 5.80124 -6.54405
84 1 4.32872 9.73212 5.80124 -6.54404
85 1 2.92401 7.2991 7.4917 -6.40207
86 1 0.114574 12.1652 5.80124 -6.54405
87 1 7.13816 9.73214 7.4917 -6.40206
88 1 4.32872 0 5.80124 -6.54405
89 1 2.92401 12.1652 7.4917 -6.40208
90 1 0.114574 2.43304 5.80124 -6.54404
91 1 7.13816 0 7.4917 -6.40207
92 1 4.32872 4.86606 5.80124 -6.54403
93 1 2.92401 2.43304 7.4917 -6.40207
94 1 7.13816 4.86606 7.4917 -6.40206
95 1 5.73344 12.1652 7.98285 -6.40205
98 1 5.73344 7.2991 7.98285 -6.40204
99 1 1.51929 9.73212 7.98285 -6.40204
102 1 5.73344 2.43304 7.98285 -6.40204
103 1 1.51929 4.86606 7.98285 -6.40204
105 1 1.51929 0 7.98285 -6.40204
107 1 4.32872 9.73212 3.12833 -3.27315
108 1 4.32872 4.86606 3.12833 -3.27316
109 1 0.114574 12.1652 3.12833 -3.27315
110 1 0.114574 2.43304 3.12833 -3.27315
111 1 0.114574 7.2991 3.12833 -3.27315
112 1 4.32872 0 3.12833 -3.27314
325 2 3.03858 10.477 4.46474 -3.32409
326 2 1.40472 12.91 4.46474 -3.32409
327 2 4.32872 13.1085 4.46474 -3.32408
328 2 7.25273 3.1779 4.46474 -3.32408
329 2 0.114574 5.80937 4.46474 -3.32409
330 2 5.61887 5.61093 4.46474 -3.32408
331 2 0.114574 10.6754 4.46474 -3.32409
332 2 5.61887 10.477 4.46474 -3.32408
333 2 7.25273 8.04396 4.46474 -3.32409
334 2 0.114574 0.943306 4.46474 -3.32409
335 2 5.61887 0.744873 4.46474 -3.32408
336 2 7.25273 12.91 4.46474 -3.32408
337 2 1.40472 8.04396 4.46474 -3.32407
338 2 4.32872 8.24241 4.46474 -3.32408
339 2 3.03858 5.61092 4.46474 -3.32409
340 2 1.40472 3.1779 4.46474 -3.32408
341 2 4.32872 3.37635 4.46474 -3.32409
342 2 3.03858 0.744859 4.46474 -3.32408
343 2 0.22914 8.98727 6.64644 -4.12705
344 2 7.02359 6.55424 6.64644 -4.12705
345 2 1.51929 6.35579 6.64644 -4.12705
346 2 5.73344 8.78883 6.64644 -4.12705
347 2 2.80944 8.98727 6.64644 -4.12704
348 2 4.44329 11.4203 6.64644 -4.12706
349 2 0.22914 13.8533 6.64644 -4.12706
350 2 7.02359 11.4203 6.64644 -4.12704
351 2 1.51929 11.2219 6.64644 -4.12706
352 2 4.44329 1.68816 6.64644 -4.12706
353 2 5.73344 13.6549 6.64644 -4.12705
354 2 2.80944 13.8533 6.64644 -4.12705
355 2 0.22914 4.1212 6.64644 -4.12705
356 2 1.51929 1.48973 6.64644 -4.12705
357 2 7.02359 1.68816 6.64644 -4.12705
358 2 2.80944 4.1212 6.64644 -4.12704
359 2 5.73344 3.92275 6.64644 -4.12704
360 2 4.44329 6.55424 6.64644 -4.12706
35 1 5.73344 2.43304 14.5279 -6.40125
36 1 4.32872 4.86606 16.2184 -6.41574
37 1 5.73344 12.1652 14.5279 -6.40126
38 1 5.73344 7.2991 14.5279 -6.40116
39 1 4.32872 9.73212 16.2184 -6.37387
40 1 1.51928 4.86606 14.5279 -6.40115
41 1 0.114574 2.43304 16.2184 -6.42014
42 1 1.51928 0 14.5279 -6.40125
43 1 0.114574 12.1652 16.2184 -6.338
44 1 1.51928 9.73212 14.5279 -6.40129
45 1 0.114574 7.2991 16.2184 -6.28204
46 1 4.32872 0 16.2184 -6.37195
47 1 2.92401 12.1652 10.1646 -6.40196
48 1 2.92401 7.2991 10.1646 -6.40195
49 1 1.51929 9.73212 11.855 -6.4021
50 1 7.13816 4.86606 10.1646 -6.40194
51 1 5.73344 2.43304 11.855 -6.40212
52 1 7.13816 0 10.1646 -6.40195
53 1 5.73344 12.1652 11.855 -6.40212
54 1 7.13816 9.73214 10.1646 -6.40194
55 1 5.73344 7.2991 11.855 -6.40212
56 1 2.92401 2.43304 10.1646 -6.40195
57 1 1.51929 0 11.855 -6.40212
58 1 1.51929 4.86606 11.855 -6.4021
59 1 4.32872 0 12.3462 -6.40196
60 1 2.92401 2.43304 14.0367 -6.38416
61 1 7.13816 0 14.0367 -6.38415
62 1 0.114574 7.2991 12.3462 -6.40197
63 1 0.114574 2.43304 12.3462 -6.40196
64 1 7.13816 4.86606 14.0367 -6.38415
65 1 4.32872 4.86606 12.3462 -6.40196
66 1 2.92401 7.2991 14.0367 -6.38363
67 1 0.114574 12.1652 12.3462 -6.40197
68 1 4.32872 9.73212 12.3462 -6.40196
69 1 7.13816 9.73214 14.0367 -6.38415
70 1 2.92401 12.1652 14.0367 -6.38418
96 1 0.114574 12.1652 9.67335 -6.40208
97 1 4.32872 9.73212 9.67335 -6.40207
100 1 0.114574 7.2991 9.67335 -6.40207
101 1 4.32872 4.86606 9.67335 -6.40207
104 1 0.114574 2.43304 9.67335 -6.40207
106 1 4.32872 0 9.67335 -6.40207
271 2 5.84801 4.1212 15.3731 -4.12743
272 2 7.13816 1.48973 15.3731 -4.12743
273 2 4.21415 1.68818 15.3731 -4.12744
274 2 5.84801 13.8533 15.3731 -4.12743
275 2 7.13816 11.2219 15.3731 -4.12743
276 2 4.21415 11.4203 15.3731 -4.12745
277 2 5.84801 8.98727 15.3731 -4.12743
278 2 7.13816 6.35579 15.3731 -4.12744
279 2 4.21415 6.55424 15.3731 -4.12743
280 2 0 4.1212 15.3731 -4.12742
281 2 2.92401 3.92275 15.3731 -4.12744
282 2 1.63386 6.55424 15.3731 -4.12741
283 2 1.63386 1.68816 15.3731 -4.12743
284 2 0 13.8533 15.3731 -4.12744
285 2 2.92401 13.6549 15.3731 -4.12745
286 2 0 8.98727 15.3731 -4.12744
287 2 2.92401 8.78882 15.3731 -4.12742
288 2 1.63386 11.4203 15.3731 -4.12744
289 2 3.03858 13.8533 11.0098 -4.12708
290 2 1.40472 11.4203 11.0098 -4.12708
291 2 4.32872 11.2219 11.0098 -4.12709
292 2 3.03858 8.98727 11.0098 -4.12707
293 2 1.40472 6.55424 11.0098 -4.12709
294 2 4.32872 6.35579 11.0098 -4.12709
295 2 5.61887 4.1212 11.0098 -4.12707
296 2 0.114574 3.92275 11.0098 -4.12708
297 2 7.25273 6.55424 11.0098 -4.12709
298 2 0.114574 13.6549 11.0098 -4.12709
299 2 5.61887 13.8533 11.0098 -4.12707
300 2 7.25273 1.68818 11.0098 -4.12709
301 2 7.25273 11.4203 11.0098 -4.12707
302 2 5.61887 8.98727 11.0098 -4.12708
303 2 0.114574 8.78882 11.0098 -4.12709
304 2 3.03858 4.1212 11.0098 -4.12707
305 2 4.32872 1.48973 11.0098 -4.12708
306 2 1.40472 1.68816 11.0098 -4.12708
307 2 5.73344 0.943306 13.1914 -4.12709
308 2 2.80944 0.744873 13.1914 -4.12708
309 2 4.44329 12.91 13.1914 -4.1271
310 2 0.22914 5.61093 13.1914 -4.12709
311 2 7.02359 8.04396 13.1914 -4.12709
312 2 1.51929 8.24241 13.1914 -4.12708
313 2 0.22914 0.744873 13.1914 -4.12709
314 2 7.02359 3.1779 13.1914 -4.12708
315 2 1.51929 3.37635 13.1914 -4.12708
316 2 4.44329 3.1779 13.1914 -4.12709
317 2 5.73344 5.80937 13.1914 -4.1271
318 2 2.80944 5.61093 13.1914 -4.12709
319 2 0.22914 10.477 13.1914 -4.12709
320 2 7.02359 12.91 13.1914 -4.12709
321 2 1.51929 13.1085 13.1914 -4.12709
322 2 4.44329 8.04396 13.1914 -4.12709
323 2 5.73344 10.6754 13.1914 -4.12709
324 2 2.80944 10.477 13.1914 -4.12709
361 2 5.84801 10.477 8.8281 -4.12712
362 2 7.13816 13.1085 8.8281 -4.12713
363 2 0 10.477 8.8281 -4.12713
364 2 1.63386 12.91 8.8281 -4.12713
365 2 4.21415 8.04396 8.8281 -4.12713
366 2 5.84801 5.61093 8.8281 -4.12712
367 2 7.13816 8.24241 8.8281 -4.12713
368 2 1.63386 8.04396 8.8281 -4.12711
369 2 2.92401 10.6754 8.8281 -4.12713
370 2 4.21415 3.1779 8.8281 -4.12712
371 2 5.84801 0.744873 8.8281 -4.12712
372 2 7.13816 3.37635 8.8281 -4.12712
373 2 1.63386 3.1779 8.8281 -4.12711
374 2 2.92401 5.80937 8.8281 -4.12713
375 2 2.92401 0.943306 8.8281 -4.12713
376 2 4.21415 12.91 8.8281 -4.12713
377 2 0 0.744859 8.8281 -4.12713
378 2 0 5.61092 8.8281 -4.12714
1 1 5.61888 0.980371 23.812 -3.22378
2 1 0 0.980371 23.812 -3.16717
3 1 2.80944 0.980371 23.812 -3.08805
16 1 5.61888 10.7125 23.8576 -3.05332
17 1 0 10.7125 23.8576 -3.10764
18 1 8.46048 7.68508 21.1584 -5.60512
19 1 2.92401 7.2991 19.0018 -3.4419
20 1 1.86411 9.10179 19.6846 -4.43773
21 1 3.18499 13.7649 21.334 -2.16459
22 1 2.92401 12.1652 19.0018 -5.36893
23 1 4.32872 4.86606 18.5106 -3.03101
24 1 2.92401 7.2991 16.7095 -6.5137
25 1 4.32872 9.73212 18.5106 -4.35443
26 1 2.92401 12.1652 16.7095 -6.46698
27 1 0.114574 12.1652 18.5106 -4.44471
28 1 0.114574 7.2991 18.5106 -7.16683
29 1 7.13816 9.73214 16.7095 -6.46693
30 1 0.114574 2.43304 18.5106 -3.01461
31 1 7.13816 4.86606 16.7095 -6.55192
32 1 4.32872 0 18.5106 -4.38607
33 1 2.92401 2.43304 16.7095 -6.64665
34 1 7.13816 0 16.7095 -6.59824
113 1 6.92113 5.45753 21.4717 -2.39658
114 1 7.13816 4.86606 19.0018 -3.91513
115 1 5.70038 7.72072 20.9696 -1.89317
116 1 7.13816 9.73214 19.0018 -4.77437
117 1 2.92401 2.43304 19.0018 -2.5443
118 1 7.13816 0 19.0018 -2.7587
119 1 7.30921 12.0662 21.3134 -2.07894
120 1 5.61888 5.84643 23.8348 -3.24728
121 1 1.40472 8.27947 23.8462 -2.96412
122 1 7.0236 8.27947 23.8462 -3.12744
123 1 0 5.84643 23.8348 -3.18112
124 1 7.0236 3.41341 23.8235 -3.24159
125 1 1.40472 3.41341 23.8235 -2.93735
126 1 4.21416 8.27947 23.8462 -3.09672
127 1 4.21416 3.41341 23.8235 -3.06058
128 1 2.80944 5.84643 23.8348 -2.93698
129 1 2.80944 10.7125 23.8576 -2.94175
131 1 4.21416 13.1455 23.869 -3.15844
133 1 7.0236 13.1455 23.869 -3.28052
135 1 1.40472 13.1455 23.869 -3.07288
247 1 5.63206 2.68667 20.8189 -2.16704
248 1 7.1868 0.773737 21.5847 -2.48878
249 2 0.719823 9.63213 21.3481 -1.59405
250 2 2.80392 13.9447 19.4615 -2.78112
251 2 1.1104 12.0904 20.256 -2.55948
252 2 4.32872 3.37635 17.5548 -3.24809
253 2 3.03858 5.61093 17.5548 -3.30496
254 2 5.61887 5.61093 17.5548 -3.41173
255 2 4.60981 11.5018 19.3028 -1.83117
256 2 4.32872 8.24241 17.5548 -3.41498
257 2 3.03858 10.477 17.5548 -3.56423
258 2 5.61887 10.477 17.5548 -3.74145
259 2 1.40472 12.91 17.5548 -3.87953
260 2 7.25273 12.91 17.5548 -3.39926
261 2 0.114574 10.6754 17.5548 -3.66694
262 2 0.114574 5.80937 17.5548 -3.71537
263 2 1.40472 8.04397 17.5548 -4.02255
264 2 7.25273 8.04397 17.5548 -3.94218
265 2 1.40472 3.1779 17.5548 -3.24834
266 2 7.25273 3.1779 17.5548 -3.33786
267 2 0.114574 0.943306 17.5548 -3.24814
268 2 4.32872 13.1085 17.5548 -3.89577
269 2 3.03858 0.744873 17.5548 -3.46616
270 2 5.61887 0.744873 17.5548 -3.3947
379 2 7.11167 6.70845 19.8092 -3.07526
380 2 7.1289 11.4877 19.526 -2.67808
381 2 1.93303 8.04289 21.3139 -1.89816
382 2 1.29224 13.1701 20.8855 -2.41337
383 2 0.116122 8.75921 19.5814 -4.59273
384 2 7.54987 2.65349 21.1515 -1.06559
385 2 1.30302 6.7646 19.7946 -3.75713
4 1 7.0236 5.02485 26.1582 -3.38941
5 1 1.40472 5.02485 26.1582 -3.41643
6 1 5.61888 7.45787 26.1696 -3.40939
7 1 0 7.45787 26.1696 -3.40549
8 1 4.21416 5.02485 26.1582 -3.40775
9 1 2.80944 7.45787 26.1696 -3.41531
10 1 7.0236 9.89091 26.181 -3.41301
11 1 1.40472 9.89091 26.181 -3.41335
12 1 5.61888 12.3239 26.1924 -3.40359
13 1 0 12.3239 26.1924 -3.40824
14 1 4.21416 9.89091 26.181 -3.42091
15 1 2.80944 12.3239 26.1924 -3.42818
130 1 4.21416 0.158785 26.1354 -3.39521
132 1 7.0236 0.158785 26.1354 -3.38608
134 1 1.40472 0.158785 26.1354 -3.4033
136 1 5.61888 2.59181 26.1468 -3.41677
137 1 0 2.59181 26.1468 -3.4068
138 1 2.80944 2.59181 26.1468 -3.42055
139 1 5.61888 5.81468 30.8164 -3.35104
140 1 0 5.81468 30.8164 -3.35104
141 1 7.0236 8.24771 30.8277 -3.35103
142 1 1.40472 8.24771 30.8277 -3.35103
143 1 4.21416 8.24771 30.8277 -3.35103
144 1 2.80944 5.81468 30.8164 -3.35104
145 1 7.0236 1.77021 28.4702 -3.35207
146 1 1.40472 1.77021 28.4702 -3.35207
147 1 4.21416 1.77021 28.4702 -3.35207
148 1 7.0236 6.63627 28.493 -3.35105
149 1 1.40472 6.63627 28.493 -3.35104
150 1 5.61888 4.20324 28.4816 -3.35108
151 1 0 4.20324 28.4816 -3.35108
152 1 4.21416 6.63627 28.493 -3.35104
153 1 2.80944 4.20324 28.4816 -3.35108
154 1 5.61888 9.06931 28.5044 -3.35104
155 1 0 9.06931 28.5044 -3.35104
156 1 7.0236 11.5023 28.5158 -3.35223
157 1 1.40472 11.5023 28.5158 -3.35223
158 1 4.21416 11.5023 28.5158 -3.35223
159 1 2.80944 9.06931 28.5044 -3.35104
160 1 2.80944 0.94862 30.7936 -3.3559
161 1 2.80944 13.9354 28.5271 -3.34153
162 1 0 0.94862 30.7936 -3.3559
163 1 0 13.9354 28.5271 -3.34154
164 1 5.61888 0.94862 30.7936 -3.3559
165 1 5.61888 13.9354 28.5271 -3.34153
166 1 7.0236 3.38164 30.805 -3.34972
167 1 1.40472 3.38164 30.805 -3.34972
168 1 4.21416 3.38164 30.805 -3.34972
179 1 4.21416 13.1138 30.8505 -3.35589
180 1 5.61888 10.6807 30.8392 -3.34972
181 1 0 10.6807 30.8392 -3.34973
183 1 7.0236 13.1138 30.8505 -3.3559
185 1 1.40472 13.1138 30.8505 -3.35589
186 1 2.80944 10.6807 30.8392 -3.34972
169 1 5.61888 7.42612 33.1512 -3.35104
170 1 0 7.42612 33.1512 -3.35104
171 1 7.0236 9.85914 33.1626 -3.35108
172 1 1.40472 9.85914 33.1626 -3.35108
173 1 4.21416 9.85914 33.1626 -3.35108
174 1 2.80944 7.42612 33.1512 -3.35104
175 1 5.61888 12.2922 33.1739 -3.35206
176 1 0 12.2922 33.1739 -3.35206
177 1 2.80944 12.2922 33.1739 -3.35206
178 1 4.21416 0.127019 33.117 -3.34154
182 1 7.0236 0.127019 33.117 -3.34154
184 1 1.40472 0.127019 33.117 -3.34154
187 1 5.61888 2.56006 33.1284 -3.35222
188 1 0 2.56006 33.1284 -3.35222
189 1 7.0236 4.99308 33.1397 -3.35105
190 1 1.40472 4.99308 33.1397 -3.35104
191 1 4.21416 4.99308 33.1397 -3.35104
192 1 2.80944 2.56006 33.1284 -3.35222
193 1 5.61888 12.2604 40.1555 -2.97112
194 1 0 12.2604 40.1555 -2.97112
195 1 2.80944 12.2604 40.1555 -2.97111
196 1 7.0236 9.82739 40.1441 -2.97446
197 1 1.40472 9.82739 40.1441 -2.97446
198 1 4.21416 9.82739 40.1441 -2.97446
199 1 5.61888 5.78293 37.7979 -3.43976
200 1 0 5.78293 37.7979 -3.43976
201 1 7.0236 8.21595 37.8093 -3.43975
202 1 1.40472 8.21595 37.8093 -3.43975
203 1 4.21416 8.21595 37.8093 -3.43975
204 1 2.80944 5.78293 37.7979 -3.43976
205 1 4.21416 0.095268 40.0985 -2.9788
206 1 4.21416 13.082 37.8321 -3.44396
207 1 5.61888 2.52829 40.11 -2.97213
208 1 0 2.52829 40.11 -2.97213
209 1 5.61888 10.649 37.8207 -3.43844
210 1 0 10.649 37.8207 -3.43844
211 1 7.0236 0.095268 40.0985 -2.97881
212 1 7.0236 13.082 37.8321 -3.44396
213 1 1.40472 0.095268 40.0985 -2.97881
214 1 1.40472 13.082 37.8321 -3.44396
215 1 2.80944 2.52829 40.11 -2.97213
216 1 2.80944 10.649 37.8207 -3.43844
217 1 7.0236 4.96133 40.1213 -2.97443
218 1 1.40472 4.96133 40.1213 -2.97443
219 1 5.61888 7.39435 40.1327 -2.97441
220 1 0 7.39435 40.1327 -2.97442
221 1 4.21416 4.96133 40.1213 -2.97442
222 1 2.80944 7.39435 40.1327 -2.97441
223 1 5.61888 9.03756 35.4859 -3.35104
224 1 0 9.03756 35.4859 -3.35105
225 1 7.0236 11.4706 35.4973 -3.35223
226 1 1.40472 11.4706 35.4973 -3.35223
227 1 4.21416 11.4706 35.4973 -3.35223
228 1 2.80944 9.03756 35.4859 -3.35104
229 1 2.80944 0.916869 37.7751 -3.4418
230 1 2.80944 13.9036 35.5087 -3.34154
231 1 0 0.916869 37.7751 -3.44181
232 1 0 13.9036 35.5087 -3.34155
233 1 5.61888 0.916869 37.7751 -3.4418
234 1 5.61888 13.9036 35.5087 -3.34154
235 1 7.0236 3.34989 37.7865 -3.43844
236 1 1.40472 3.34989 37.7865 -3.43843
237 1 4.21416 3.34989 37.7865 -3.43843
238 1 7.0236 1.73846 35.4518 -3.35208
239 1 1.40472 1.73846 35.4518 -3.35207
240 1 4.21416 1.73846 35.4518 -3.35207
241 1 7.0236 6.60452 35.4745 -3.35104
242 1 1.40472 6.60452 35.4745 -3.35104
243 1 5.61888 4.17149 35.4632 -3.35108
244 1 0 4.17149 35.4632 -3.35108
245 1 4.21416 6.60452 35.4745 -3.35104
246 1 2.80944 4.17149 35.4632 -3.35108
