ITEM: TIMESTEP
1550
ITEM: NUMBER OF ATOMS
17
ITEM: BOX BOUNDS ff ff ff
0.0000000000000000e+00 1.8000000000000000e+01
0.0000000000000000e+00 1.8000000000000000e+01
0.0000000000000000e+00 1.8000000000000000e+01
ITEM: ATOMS id type x y z c_peatom 
3 1 8.87729 5.61587 8.41953 -3.26876 
9 2 7.54394 5.52161 7.36927 -4.90646 
16 2 6.52753 7.94539 7.86895 -3.74083 
7 1 6.23758 6.27326 8.40866 -4.48088 
4 1 8.15865 8.40089 8.81972 -6.60264 
14 2 11.7481 8.01678 7.66678 -2.44026 
5 1 8.26903 10.7249 7.15511 -4.79477 
10 2 7.58262 10.2619 8.89404 -4.1997 
8 2 11.3958 10.187 6.24869 -2.45194 
11 2 9.7917 11.373 8.07006 -3.92017 
15 2 9.03401 9.02961 7.08754 -3.63636 
1 1 10.973 9.56341 7.80842 -9.84519 
17 2 12.22 10.3758 8.69365 -2.45356 
2 1 7.76807 6.43031 10.7697 -3.35531 
13 2 7.68156 8.11151 10.7149 -4.38872 
12 2 9.88298 9.21727 9.606 -3.61111 
6 1 9.15549 10.9159 9.79145 -4.80247 
