ITEM: TIMESTEP
121
ITEM: NUMBER OF ATOMS
384
ITEM: BOX BOUNDS pp pp pp
0.0000000000000000e+00 8.4283000000000001e+00
0.0000000000000000e+00 1.4598200000000000e+01
0.0000000000000000e+00 4.9476269000000002e+01
ITEM: ATOMS id type x y z c_peatom
71 1 2.92401 12.1652 3.61953 -2.2941
72 1 7.13816 4.86606 3.61953 -2.29409
73 1 5.73344 7.2991 5.31004 -6.5982
74 1 7.13816 9.73214 3.61953 -2.29409
75 1 5.73344 12.1652 5.31004 -6.5982
76 1 7.13816 0 3.61953 -2.29408
77 1 5.73344 2.43304 5.31004 -6.5982
78 1 2.92401 7.2991 3.61953 -2.29408
79 1 1.51929 9.73212 5.31004 -6.59819
80 1 2.92401 2.43304 3.61953 -2.29408
81 1 1.51929 4.86606 5.31004 -6.5982
82 1 1.51929 0 5.31004 -6.59819
83 1 0.114574 7.2991 5.80124 -6.54405
84 1 4.32872 9.73212 5.80124 -6.54404
85 1 2.92401 7.2991 7.4917 -6.40207
86 1 0.114574 12.1652 5.80124 -6.54405
87 1 7.13816 9.73214 7.4917 -6.40206
88 1 4.32872 0 5.80124 -6.54405
89 1 2.92401 12.1652 7.4917 -6.40208
90 1 0.114574 2.43304 5.80124 -6.54404
91 1 7.13816 0 7.4917 -6.40207
92 1 4.32872 4.86606 5.80124 -6.54403
93 1 2.92401 2.43304 7.4917 -6.40207
94 1 7.13816 4.86606 7.4917 -6.40206
95 1 5.73344 12.1652 7.98285 -6.40205
98 1 5.73344 7.2991 7.98285 -6.40204
99 1 1.51929 9.73212 7.98285 -6.40204
102 1 5.73344 2.43304 7.98285 -6.40204
103 1 1.51929 4.86606 7.98285 -6.40204
105 1 1.51929 0 7.98285 -6.40204
107 1 4.32872 9.73212 3.12833 -3.27315
108 1 4.32872 4.86606 3.12833 -3.27316
109 1 0.114574 12.1652 3.12833 -3.27315
110 1 0.114574 2.43304 3.12833 -3.27315
111 1 0.114574 7.2991 3.12833 -3.27315
112 1 4.32872 0 3.12833 -3.27314
323 2 3.03858 10.477 4.46474 -3.32409
324 2 1.40472 12.91 4.46474 -3.32409
325 2 4.32872 13.1085 4.46474 -3.32408
326 2 7.25273 3.1779 4.46474 -3.32408
327 2 0.114574 5.80937 4.46474 -3.32409
328 2 5.61887 5.61093 4.46474 -3.32408
329 2 0.114574 10.6754 4.46474 -3.32409
330 2 5.61887 10.477 4.46474 -3.32408
331 2 7.25273 8.04396 4.46474 -3.32409
332 2 0.114574 0.943306 4.46474 -3.32409
333 2 5.61887 0.744873 4.46474 -3.32408
334 2 7.25273 12.91 4.46474 -3.32408
335 2 1.40472 8.04396 4.46474 -3.32407
336 2 4.32872 8.24241 4.46474 -3.32408
337 2 3.03858 5.61092 4.46474 -3.32409
338 2 1.40472 3.1779 4.46474 -3.32408
339 2 4.32872 3.37635 4.46474 -3.32409
340 2 3.03858 0.744859 4.46474 -3.32408
341 2 0.22914 8.98727 6.64644 -4.12705
342 2 7.02359 6.55424 6.64644 -4.12705
343 2 1.51929 6.35579 6.64644 -4.12705
344 2 5.73344 8.78883 6.64644 -4.12705
345 2 2.80944 8.98727 6.64644 -4.12704
346 2 4.44329 11.4203 6.64644 -4.12706
347 2 0.22914 13.8533 6.64644 -4.12706
348 2 7.02359 11.4203 6.64644 -4.12704
349 2 1.51929 11.2219 6.64644 -4.12706
350 2 4.44329 1.68816 6.64644 -4.12706
351 2 5.73344 13.6549 6.64644 -4.12705
352 2 2.80944 13.8533 6.64644 -4.12705
353 2 0.22914 4.1212 6.64644 -4.12705
354 2 1.51929 1.48973 6.64644 -4.12705
355 2 7.02359 1.68816 6.64644 -4.12705
356 2 2.80944 4.1212 6.64644 -4.12704
357 2 5.73344 3.92275 6.64644 -4.12704
358 2 4.44329 6.55424 6.64644 -4.12706
35 1 5.73344 2.43304 14.5279 -6.40125
36 1 4.32872 4.86606 16.2184 -6.37252
37 1 5.73344 12.1652 14.5279 -6.40126
38 1 5.73344 7.2991 14.5279 -6.40126
39 1 4.32872 9.73212 16.2184 -6.33224
40 1 1.51928 4.86606 14.5279 -6.40124
41 1 0.114574 2.43304 16.2184 -6.34464
42 1 1.51928 0 14.5279 -6.40125
43 1 0.114574 12.1652 16.2184 -6.374
44 1 1.51928 9.73212 14.5279 -6.40124
45 1 0.114574 7.2991 16.2184 -6.36608
46 1 4.32872 0 16.2184 -6.36463
47 1 2.92401 12.1652 10.1646 -6.40196
48 1 2.92401 7.2991 10.1646 -6.40195
49 1 1.51929 9.73212 11.855 -6.4021
50 1 7.13816 4.86606 10.1646 -6.40194
51 1 5.73344 2.43304 11.855 -6.40212
52 1 7.13816 0 10.1646 -6.40195
53 1 5.73344 12.1652 11.855 -6.40212
54 1 7.13816 9.73214 10.1646 -6.40194
55 1 5.73344 7.2991 11.855 -6.40212
56 1 2.92401 2.43304 10.1646 -6.40195
57 1 1.51929 0 11.855 -6.40212
58 1 1.51929 4.86606 11.855 -6.4021
59 1 4.32872 0 12.3462 -6.40196
60 1 2.92401 2.43304 14.0367 -6.38416
61 1 7.13816 0 14.0367 -6.38415
62 1 0.114574 7.2991 12.3462 -6.40197
63 1 0.114574 2.43304 12.3462 -6.40196
64 1 7.13816 4.86606 14.0367 -6.38415
65 1 4.32872 4.86606 12.3462 -6.40196
66 1 2.92401 7.2991 14.0367 -6.38417
67 1 0.114574 12.1652 12.3462 -6.40197
68 1 4.32872 9.73212 12.3462 -6.40196
69 1 7.13816 9.73214 14.0367 -6.38415
70 1 2.92401 12.1652 14.0367 -6.38418
96 1 0.114574 12.1652 9.67335 -6.40208
97 1 4.32872 9.73212 9.67335 -6.40207
100 1 0.114574 7.2991 9.67335 -6.40207
101 1 4.32872 4.86606 9.67335 -6.40207
104 1 0.114574 2.43304 9.67335 -6.40207
106 1 4.32872 0 9.67335 -6.40207
269 2 5.84801 4.1212 15.3731 -4.12743
270 2 7.13816 1.48973 15.3731 -4.12743
271 2 4.21415 1.68818 15.3731 -4.12744
272 2 5.84801 13.8533 15.3731 -4.12743
273 2 7.13816 11.2219 15.3731 -4.12743
274 2 4.21415 11.4203 15.3731 -4.12745
275 2 5.84801 8.98727 15.3731 -4.12743
276 2 7.13816 6.35579 15.3731 -4.12744
277 2 4.21415 6.55424 15.3731 -4.12745
278 2 0 4.1212 15.3731 -4.12742
279 2 2.92401 3.92275 15.3731 -4.12744
280 2 1.63386 6.55424 15.3731 -4.12744
281 2 1.63386 1.68816 15.3731 -4.12743
282 2 0 13.8533 15.3731 -4.12744
283 2 2.92401 13.6549 15.3731 -4.12745
284 2 0 8.98727 15.3731 -4.12744
285 2 2.92401 8.78882 15.3731 -4.12744
286 2 1.63386 11.4203 15.3731 -4.12744
287 2 3.03858 13.8533 11.0098 -4.12708
288 2 1.40472 11.4203 11.0098 -4.12708
289 2 4.32872 11.2219 11.0098 -4.12709
290 2 3.03858 8.98727 11.0098 -4.12707
291 2 1.40472 6.55424 11.0098 -4.12709
292 2 4.32872 6.35579 11.0098 -4.12709
293 2 5.61887 4.1212 11.0098 -4.12707
294 2 0.114574 3.92275 11.0098 -4.12708
295 2 7.25273 6.55424 11.0098 -4.12709
296 2 0.114574 13.6549 11.0098 -4.12709
297 2 5.61887 13.8533 11.0098 -4.12707
298 2 7.25273 1.68818 11.0098 -4.12709
299 2 7.25273 11.4203 11.0098 -4.12707
300 2 5.61887 8.98727 11.0098 -4.12708
301 2 0.114574 8.78882 11.0098 -4.12709
302 2 3.03858 4.1212 11.0098 -4.12707
303 2 4.32872 1.48973 11.0098 -4.12708
304 2 1.40472 1.68816 11.0098 -4.12708
305 2 5.73344 0.943306 13.1914 -4.12709
306 2 2.80944 0.744873 13.1914 -4.12708
307 2 4.44329 12.91 13.1914 -4.1271
308 2 0.22914 5.61093 13.1914 -4.12709
309 2 7.02359 8.04396 13.1914 -4.12709
310 2 1.51929 8.24241 13.1914 -4.12708
311 2 0.22914 0.744873 13.1914 -4.12709
312 2 7.02359 3.1779 13.1914 -4.12708
313 2 1.51929 3.37635 13.1914 -4.12708
314 2 4.44329 3.1779 13.1914 -4.12709
315 2 5.73344 5.80937 13.1914 -4.1271
316 2 2.80944 5.61093 13.1914 -4.12709
317 2 0.22914 10.477 13.1914 -4.12709
318 2 7.02359 12.91 13.1914 -4.12709
319 2 1.51929 13.1085 13.1914 -4.12709
320 2 4.44329 8.04396 13.1914 -4.12709
321 2 5.73344 10.6754 13.1914 -4.12709
322 2 2.80944 10.477 13.1914 -4.12709
359 2 5.84801 10.477 8.8281 -4.12712
360 2 7.13816 13.1085 8.8281 -4.12713
361 2 0 10.477 8.8281 -4.12713
362 2 1.63386 12.91 8.8281 -4.12713
363 2 4.21415 8.04396 8.8281 -4.12713
364 2 5.84801 5.61093 8.8281 -4.12712
365 2 7.13816 8.24241 8.8281 -4.12713
366 2 1.63386 8.04396 8.8281 -4.12711
367 2 2.92401 10.6754 8.8281 -4.12713
368 2 4.21415 3.1779 8.8281 -4.12712
369 2 5.84801 0.744873 8.8281 -4.12712
370 2 7.13816 3.37635 8.8281 -4.12712
371 2 1.63386 3.1779 8.8281 -4.12711
372 2 2.92401 5.80937 8.8281 -4.12713
373 2 2.92401 0.943306 8.8281 -4.12713
374 2 4.21415 12.91 8.8281 -4.12713
375 2 0 0.744859 8.8281 -4.12713
376 2 0 5.61092 8.8281 -4.12714
1 1 5.61888 0.980371 23.812 -3.06298
2 1 0 0.980371 23.812 -2.95863
3 1 2.80944 0.980371 23.812 -2.94415
16 1 5.61888 10.7125 23.8576 -3.0521
17 1 0 10.7125 23.8576 -3.32016
18 1 6.34565 5.16472 21.3314 -2.6359
19 1 5.61066 7.62977 21.1603 -2.77626
20 1 8.19451 9.33911 21.4689 -3.09082
21 1 2.39172 9.73318 19.747 -5.12786
22 1 7.13816 9.73214 19.0018 -5.19298
23 1 4.32872 4.86606 18.5106 -4.21073
24 1 2.92401 7.2991 16.7095 -6.57911
25 1 4.32872 9.73212 18.5106 -4.86971
26 1 2.92401 12.1652 16.7095 -6.38258
27 1 0.114574 12.1652 18.5106 -4.09399
28 1 0.114574 7.2991 18.5106 -5.22718
29 1 7.13816 9.73214 16.7095 -6.48149
30 1 0.114574 2.43304 18.5106 -5.89003
31 1 7.13816 4.86606 16.7095 -6.44743
32 1 4.32872 0 18.5106 -4.8704
33 1 2.92401 2.43304 16.7095 -6.59491
34 1 7.13816 0 16.7095 -6.55505
113 1 3.07842 12.4267 21.2169 -3.5474
114 1 2.92401 12.1652 19.0018 -7.06921
115 1 4.96268 3.01403 21.1649 -1.88604
116 1 7.13816 4.86606 19.0018 -6.1781
117 1 2.92401 2.43304 19.0018 -2.52775
118 1 2.92401 7.2991 19.0018 -2.5595
119 1 7.13816 0 19.0018 -3.80312
120 1 1.40472 8.27947 23.8462 -3.09057
121 1 5.61888 5.84643 23.8348 -3.24451
122 1 7.0236 8.27947 23.8462 -3.2374
123 1 0 5.84643 23.8348 -3.0371
124 1 7.0236 3.41341 23.8235 -3.1805
125 1 1.40472 3.41341 23.8235 -2.95839
126 1 4.21416 8.27947 23.8462 -3.10197
127 1 4.21416 3.41341 23.8235 -3.1931
128 1 2.80944 5.84643 23.8348 -2.93906
129 1 2.80944 10.7125 23.8576 -3.05363
131 1 4.21416 13.1455 23.869 -3.10578
133 1 7.0236 13.1455 23.869 -3.20474
135 1 1.40472 13.1455 23.869 -3.05111
247 1 7.33141 11.9543 21.1855 -1.76796
248 2 6.70037 6.60156 19.7506 -2.63152
249 2 0.367044 8.98041 19.5549 -3.15742
250 2 4.32872 3.37635 17.5548 -3.40968
251 2 3.03858 5.61093 17.5548 -3.40187
252 2 5.61887 5.61093 17.5548 -3.88338
253 2 5.68378 4.00824 19.6608 -2.68288
254 2 4.32872 8.24241 17.5548 -3.5317
255 2 3.03858 10.477 17.5548 -4.18836
256 2 5.61887 10.477 17.5548 -3.6032
257 2 1.40472 12.91 17.5548 -3.78352
258 2 7.25273 12.91 17.5548 -3.40556
259 2 0.114574 10.6754 17.5548 -3.65248
260 2 0.114574 5.80937 17.5548 -3.85799
261 2 1.40472 8.04397 17.5548 -3.60635
262 2 7.25273 8.04397 17.5548 -4.01886
263 2 1.40472 3.1779 17.5548 -3.52885
264 2 7.25273 3.1779 17.5548 -4.09671
265 2 0.114574 0.943306 17.5548 -3.76814
266 2 4.32872 13.1085 17.5548 -4.10258
267 2 3.03858 0.744873 17.5548 -3.36511
268 2 5.61887 0.744873 17.5548 -3.48932
377 2 4.62726 13.0003 19.7415 -2.18754
378 2 2.58868 13.8544 19.6093 -2.93063
379 2 1.51952 11.3893 19.6961 -3.62836
380 2 0.114216 3.94235 19.6318 -1.96037
381 2 1.6618 9.88916 21.4868 -1.87503
382 2 4.00554 11.0241 20.0093 -3.42508
383 2 5.69184 8.71677 19.5586 -2.61011
384 2 6.98762 1.83832 19.4334 -2.22991
4 1 7.0236 5.02485 26.1582 -3.41104
5 1 1.40472 5.02485 26.1582 -3.43089
6 1 5.61888 7.45787 26.1696 -3.39873
7 1 0 7.45787 26.1696 -3.41071
8 1 4.21416 5.02485 26.1582 -3.40107
9 1 2.80944 7.45787 26.1696 -3.41586
10 1 7.0236 9.89091 26.181 -3.40749
11 1 1.40472 9.89091 26.181 -3.40374
12 1 5.61888 12.3239 26.1924 -3.41919
13 1 0 12.3239 26.1924 -3.40407
14 1 4.21416 9.89091 26.181 -3.41052
15 1 2.80944 12.3239 26.1924 -3.43071
130 1 4.21416 0.158785 26.1354 -3.41458
132 1 7.0236 0.158785 26.1354 -3.40878
134 1 1.40472 0.158785 26.1354 -3.42365
136 1 5.61888 2.59181 26.1468 -3.42349
137 1 0 2.59181 26.1468 -3.421
138 1 2.80944 2.59181 26.1468 -3.42707
139 1 5.61888 5.81468 30.8164 -3.35104
140 1 0 5.81468 30.8164 -3.35104
141 1 7.0236 8.24771 30.8277 -3.35103
142 1 1.40472 8.24771 30.8277 -3.35103
143 1 4.21416 8.24771 30.8277 -3.35103
144 1 2.80944 5.81468 30.8164 -3.35104
145 1 7.0236 1.77021 28.4702 -3.35207
146 1 1.40472 1.77021 28.4702 -3.35207
147 1 4.21416 1.77021 28.4702 -3.35207
148 1 7.0236 6.63627 28.493 -3.35105
149 1 1.40472 6.63627 28.493 -3.35104
150 1 5.61888 4.20324 28.4816 -3.35108
151 1 0 4.20324 28.4816 -3.35108
152 1 4.21416 6.63627 28.493 -3.35104
153 1 2.80944 4.20324 28.4816 -3.35108
154 1 5.61888 9.06931 28.5044 -3.35104
155 1 0 9.06931 28.5044 -3.35104
156 1 7.0236 11.5023 28.5158 -3.35223
157 1 1.40472 11.5023 28.5158 -3.35223
158 1 4.21416 11.5023 28.5158 -3.35223
159 1 2.80944 9.06931 28.5044 -3.35104
160 1 2.80944 0.94862 30.7936 -3.3559
161 1 2.80944 13.9354 28.5271 -3.34153
162 1 0 0.94862 30.7936 -3.3559
163 1 0 13.9354 28.5271 -3.34154
164 1 5.61888 0.94862 30.7936 -3.3559
165 1 5.61888 13.9354 28.5271 -3.34153
166 1 7.0236 3.38164 30.805 -3.34972
167 1 1.40472 3.38164 30.805 -3.34972
168 1 4.21416 3.38164 30.805 -3.34972
179 1 4.21416 13.1138 30.8505 -3.35589
180 1 5.61888 10.6807 30.8392 -3.34972
181 1 0 10.6807 30.8392 -3.34973
183 1 7.0236 13.1138 30.8505 -3.3559
185 1 1.40472 13.1138 30.8505 -3.35589
186 1 2.80944 10.6807 30.8392 -3.34972
169 1 5.61888 7.42612 33.1512 -3.35104
170 1 0 7.42612 33.1512 -3.35104
171 1 7.0236 9.85914 33.1626 -3.35108
172 1 1.40472 9.85914 33.1626 -3.35108
173 1 4.21416 9.85914 33.1626 -3.35108
174 1 2.80944 7.42612 33.1512 -3.35104
175 1 5.61888 12.2922 33.1739 -3.35206
176 1 0 12.2922 33.1739 -3.35206
177 1 2.80944 12.2922 33.1739 -3.35206
178 1 4.21416 0.127019 33.117 -3.34154
182 1 7.0236 0.127019 33.117 -3.34154
184 1 1.40472 0.127019 33.117 -3.34154
187 1 5.61888 2.56006 33.1284 -3.35222
188 1 0 2.56006 33.1284 -3.35222
189 1 7.0236 4.99308 33.1397 -3.35105
190 1 1.40472 4.99308 33.1397 -3.35104
191 1 4.21416 4.99308 33.1397 -3.35104
192 1 2.80944 2.56006 33.1284 -3.35222
193 1 5.61888 12.2604 40.1555 -2.97112
194 1 0 12.2604 40.1555 -2.97112
195 1 2.80944 12.2604 40.1555 -2.97111
196 1 7.0236 9.82739 40.1441 -2.97446
197 1 1.40472 9.82739 40.1441 -2.97446
198 1 4.21416 9.82739 40.1441 -2.97446
199 1 5.61888 5.78293 37.7979 -3.43976
200 1 0 5.78293 37.7979 -3.43976
201 1 7.0236 8.21595 37.8093 -3.43975
202 1 1.40472 8.21595 37.8093 -3.43975
203 1 4.21416 8.21595 37.8093 -3.43975
204 1 2.80944 5.78293 37.7979 -3.43976
205 1 4.21416 0.095268 40.0985 -2.9788
206 1 4.21416 13.082 37.8321 -3.44396
207 1 5.61888 2.52829 40.11 -2.97213
208 1 0 2.52829 40.11 -2.97213
209 1 5.61888 10.649 37.8207 -3.43844
210 1 0 10.649 37.8207 -3.43844
211 1 7.0236 0.095268 40.0985 -2.97881
212 1 7.0236 13.082 37.8321 -3.44396
213 1 1.40472 0.095268 40.0985 -2.97881
214 1 1.40472 13.082 37.8321 -3.44396
215 1 2.80944 2.52829 40.11 -2.97213
216 1 2.80944 10.649 37.8207 -3.43844
217 1 7.0236 4.96133 40.1213 -2.97443
218 1 1.40472 4.96133 40.1213 -2.97443
219 1 5.61888 7.39435 40.1327 -2.97441
220 1 0 7.39435 40.1327 -2.97442
221 1 4.21416 4.96133 40.1213 -2.97442
222 1 2.80944 7.39435 40.1327 -2.97441
223 1 5.61888 9.03756 35.4859 -3.35104
224 1 0 9.03756 35.4859 -3.35105
225 1 7.0236 11.4706 35.4973 -3.35223
226 1 1.40472 11.4706 35.4973 -3.35223
227 1 4.21416 11.4706 35.4973 -3.35223
228 1 2.80944 9.03756 35.4859 -3.35104
229 1 2.80944 0.916869 37.7751 -3.4418
230 1 2.80944 13.9036 35.5087 -3.34154
231 1 0 0.916869 37.7751 -3.44181
232 1 0 13.9036 35.5087 -3.34155
233 1 5.61888 0.916869 37.7751 -3.4418
234 1 5.61888 13.9036 35.5087 -3.34154
235 1 7.0236 3.34989 37.7865 -3.43844
236 1 1.40472 3.34989 37.7865 -3.43843
237 1 4.21416 3.34989 37.7865 -3.43843
238 1 7.0236 1.73846 35.4518 -3.35208
239 1 1.40472 1.73846 35.4518 -3.35207
240 1 4.21416 1.73846 35.4518 -3.35207
241 1 7.0236 6.60452 35.4745 -3.35104
242 1 1.40472 6.60452 35.4745 -3.35104
243 1 5.61888 4.17149 35.4632 -3.35108
244 1 0 4.17149 35.4632 -3.35108
245 1 4.21416 6.60452 35.4745 -3.35104
246 1 2.80944 4.17149 35.4632 -3.35108
