ITEM: TIMESTEP
1569
ITEM: NUMBER OF ATOMS
16
ITEM: BOX BOUNDS ff ff ff
0.0000000000000000e+00 1.8000000000000000e+01
0.0000000000000000e+00 1.8000000000000000e+01
0.0000000000000000e+00 1.8000000000000000e+01
ITEM: ATOMS id type x y z c_peatom 
8 2 7.64478 7.93945 7.14697 -3.44096 
6 1 6.32815 9.30726 7.6512 -6.28296 
4 1 9.961 6.17433 8.68811 -3.89475 
2 1 11.6412 7.55617 7.06538 -2.93437 
10 2 11.6523 6.87825 8.63888 -5.27028 
15 2 5.70669 10.5925 8.94799 -2.82948 
11 2 7.88183 10.1471 8.35864 -3.58518 
5 1 9.11032 8.79153 7.79642 -5.14723 
13 2 6.16777 8.35582 9.19364 -3.22629 
16 2 10.8239 7.5595 11.5556 -2.8092 
1 1 11.0047 8.4833 10.1539 -7.32309 
14 2 9.29083 7.74277 9.39584 -4.33465 
12 2 5.52466 9.63198 11.3876 -2.64982 
9 2 7.68618 8.34583 10.9287 -2.54897 
3 1 6.86763 9.75514 10.351 -8.52333 
7 2 10.1822 9.87399 10.7218 -2.71497 
