ITEM: TIMESTEP
1204
ITEM: NUMBER OF ATOMS
17
ITEM: BOX BOUNDS ff ff ff
0.0000000000000000e+00 1.8000000000000000e+01
0.0000000000000000e+00 1.8000000000000000e+01
0.0000000000000000e+00 1.8000000000000000e+01
ITEM: ATOMS id type x y z c_peatom 
14 2 5.82414 7.98824 7.83252 -2.83976 
2 1 7.12203 8.7164 7.03163 -6.82043 
7 2 8.20188 7.42345 7.20765 -2.82004 
15 2 10.3378 6.634 8.21965 -2.70437 
6 1 6.48553 11.1087 8.66231 -4.22855 
9 2 7.98088 10.1077 8.21393 -3.91765 
16 2 8.3357 7.29372 10.0709 -3.02552 
4 1 10.2485 7.15174 9.84892 -7.80873 
13 2 10.6302 8.16499 11.6618 -2.86717 
10 2 11.853 8.24796 9.72286 -2.85245 
11 2 9.76476 8.99681 9.1471 -3.52757 
5 1 8.00821 9.18014 9.98916 -6.91307 
12 2 6.14343 9.97274 9.92132 -3.70415 
17 2 11.9982 11.3444 10.1905 -4.35296 
8 2 9.04774 10.2071 11.158 -3.18693 
3 1 10.8345 9.70107 10.6371 -7.12002 
1 1 10.9216 12.0853 9.19584 -3.24448 
