ITEM: TIMESTEP
1196
ITEM: NUMBER OF ATOMS
15
ITEM: BOX BOUNDS ff ff ff
0.0000000000000000e+00 1.8000000000000000e+01
0.0000000000000000e+00 1.8000000000000000e+01
0.0000000000000000e+00 1.8000000000000000e+01
ITEM: ATOMS id type x y z c_peatom
8 2 5.79271 8.02322 8.61311 -1.15893
5 1 10.1657 7.38765 8.32056 -3.77769
7 2 9.44388 8.92122 7.50107 -4.37867
11 2 7.86844 11.2851 6.06359 -2.86903
13 2 7.74221 11.5458 8.50369 -3.13998
4 1 10.9187 10.1172 7.30448 -5.10589
14 2 10.1795 11.1426 6.00689 -3.39731
15 2 10.0164 11.2078 8.51667 -3.67066
6 1 8.89837 12.1465 7.08805 -6.9111
12 2 6.8155 8.85314 9.2812 -2.41532
1 1 11.6764 6.53804 10.4362 -2.80898
2 1 9.56898 8.2034 10.9796 -4.09961
9 2 11.0801 8.03538 9.83497 -5.96259
3 1 8.50039 9.86985 8.96822 -6.75854
10 2 9.38264 9.93938 10.6586 -3.88053
