Generated by pymatgen.io.lammps.data.LammpsData

381  atoms

  2  atom types

0.000000 8.428300  xlo xhi
0.000000 14.598200  ylo yhi
0.000000 49.476269  zlo zhi

Masses

1  26.981539
2  15.999400

Atoms

1    1 0.0000 0.613019 13.620151 21.172174
2    1 0.0000 1.224970 11.488196 21.033550
3    1 0.0000 3.853818  8.031610 20.973352
4    1 0.0000 4.328724  4.866062 18.510606
5    1 0.0000 2.924005  7.299100 16.709521
6    1 0.0000 4.328724  9.732124 18.510606
7    1 0.0000 2.924005 12.165162 16.709521
8    1 0.0000 0.114574 12.165162 18.510606
9    1 0.0000 0.114574  7.299100 18.510606
10   1 0.0000 7.138155  9.732138 16.709521
11   1 0.0000 0.114574  2.433038 18.510606
12   1 0.0000 7.138155  4.866062 16.709521
13   1 0.0000 4.328724  0.000000 18.510606
14   1 0.0000 2.924005  2.433038 16.709521
15   1 0.0000 7.138155  0.000000 16.709521
16   1 0.0000 5.733444  2.433038 14.527915
17   1 0.0000 4.328724  4.866062 16.218370
18   1 0.0000 5.733444 12.165162 14.527915
19   1 0.0000 5.733444  7.299100 14.527915
20   1 0.0000 4.328724  9.732124 16.218370
21   1 0.0000 1.519285  4.866062 14.527915
22   1 0.0000 0.114574  2.433038 16.218370
23   1 0.0000 1.519285  0.000000 14.527915
24   1 0.0000 0.114574 12.165162 16.218370
25   1 0.0000 1.519285  9.732124 14.527915
26   1 0.0000 0.114574  7.299100 16.218370
27   1 0.0000 4.328724  0.000000 16.218370
28   1 0.0000 2.924005 12.165162 10.164553
29   1 0.0000 2.924005  7.299100 10.164553
30   1 0.0000 1.519294  9.732124 11.855009
31   1 0.0000 7.138155  4.866062 10.164553
32   1 0.0000 5.733444  2.433038 11.855009
33   1 0.0000 7.138155  0.000000 10.164553
34   1 0.0000 5.733444 12.165162 11.855009
35   1 0.0000 7.138155  9.732138 10.164553
36   1 0.0000 5.733444  7.299100 11.855009
37   1 0.0000 2.924005  2.433038 10.164553
38   1 0.0000 1.519294  0.000000 11.855009
39   1 0.0000 1.519294  4.866062 11.855009
40   1 0.0000 4.328724  0.000000 12.346209
41   1 0.0000 2.924005  2.433038 14.036714
42   1 0.0000 7.138155  0.000000 14.036714
43   1 0.0000 0.114574  7.299100 12.346209
44   1 0.0000 0.114574  2.433038 12.346209
45   1 0.0000 7.138155  4.866062 14.036714
46   1 0.0000 4.328724  4.866062 12.346209
47   1 0.0000 2.924005  7.299100 14.036714
48   1 0.0000 0.114574 12.165162 12.346209
49   1 0.0000 4.328724  9.732124 12.346209
50   1 0.0000 7.138155  9.732138 14.036714
51   1 0.0000 2.924005 12.165162 14.036714
52   1 0.0000 2.924005 12.165162  3.619535
53   1 0.0000 7.138155  4.866062  3.619535
54   1 0.0000 5.733444  7.299100  5.310041
55   1 0.0000 7.138155  9.732138  3.619535
56   1 0.0000 5.733444 12.165162  5.310041
57   1 0.0000 7.138155  0.000000  3.619535
58   1 0.0000 5.733444  2.433038  5.310041
59   1 0.0000 2.924005  7.299100  3.619535
60   1 0.0000 1.519294  9.732124  5.310041
61   1 0.0000 2.924005  2.433038  3.619535
62   1 0.0000 1.519294  4.866062  5.310041
63   1 0.0000 1.519294  0.000000  5.310041
64   1 0.0000 0.114574  7.299100  5.801241
65   1 0.0000 4.328724  9.732124  5.801241
66   1 0.0000 2.924005  7.299100  7.491697
67   1 0.0000 0.114574 12.165162  5.801241
68   1 0.0000 7.138155  9.732138  7.491697
69   1 0.0000 4.328724  0.000000  5.801241
70   1 0.0000 2.924005 12.165162  7.491697
71   1 0.0000 0.114574  2.433038  5.801241
72   1 0.0000 7.138155  0.000000  7.491697
73   1 0.0000 4.328724  4.866062  5.801241
74   1 0.0000 2.924005  2.433038  7.491697
75   1 0.0000 7.138155  4.866062  7.491697
76   1 0.0000 5.733444 12.165162  7.982848
77   1 0.0000 0.114574 12.165162  9.673353
78   1 0.0000 4.328724  9.732124  9.673353
79   1 0.0000 5.733444  7.299100  7.982848
80   1 0.0000 1.519294  9.732124  7.982848
81   1 0.0000 0.114574  7.299100  9.673353
82   1 0.0000 4.328724  4.866062  9.673353
83   1 0.0000 5.733444  2.433038  7.982848
84   1 0.0000 1.519294  4.866062  7.982848
85   1 0.0000 0.114574  2.433038  9.673353
86   1 0.0000 1.519294  0.000000  7.982848
87   1 0.0000 4.328724  0.000000  9.673353
88   1 0.0000 4.328724  9.732124  3.128335
89   1 0.0000 4.328724  4.866062  3.128335
90   1 0.0000 0.114574 12.165162  3.128335
91   1 0.0000 0.114574  2.433038  3.128335
92   1 0.0000 0.114574  7.299100  3.128335
93   1 0.0000 4.328724  0.000000  3.128335
94   1 0.0000 2.924005  2.433038 19.001806
95   1 0.0000 1.978267  4.718463 20.601133
96   1 0.0000 2.924005 12.165162 19.001806
97   1 0.0000 7.138155  4.866062 19.001806
98   1 0.0000 7.138155  9.732138 19.001806
99   1 0.0000 2.924005  7.299100 19.001806
100  1 0.0000 7.138155  0.000000 19.001806
101  1 0.0000 5.320872  1.968117 20.924080
102  1 0.0000 5.618878  0.980371 23.812038
103  1 0.0000 0.000000  0.980371 23.812038
104  1 0.0000 2.809439  0.980371 23.812038
105  1 0.0000 5.618878  5.846433 23.834797
106  1 0.0000 0.000000  5.846433 23.834797
107  1 0.0000 7.023597  3.413410 23.823467
108  1 0.0000 1.404719  3.413410 23.823467
109  1 0.0000 4.214158  3.413410 23.823467
110  1 0.0000 2.809439  5.846433 23.834797
111  1 0.0000 5.618878 10.712495 23.857605
112  1 0.0000 0.000000 10.712495 23.857605
113  1 0.0000 7.023597  8.279471 23.846226
114  1 0.0000 1.404719  8.279471 23.846226
115  1 0.0000 4.214158  8.279471 23.846226
116  1 0.0000 2.809439 10.712495 23.857605
117  1 0.0000 4.214158  0.158785 26.135394
118  1 0.0000 4.214158 13.145533 23.868985
119  1 0.0000 1.404719  0.158785 26.135394
120  1 0.0000 1.404719 13.145533 23.868985
121  1 0.0000 7.023597  0.158785 26.135394
122  1 0.0000 7.023597 13.145533 23.868985
123  1 0.0000 5.618878  2.591808 26.146823
124  1 0.0000 0.000000  2.591808 26.146823
125  1 0.0000 2.809439  2.591808 26.146823
126  1 0.0000 7.023597  5.024846 26.158202
127  1 0.0000 1.404719  5.024846 26.158202
128  1 0.0000 5.618878  7.457870 26.169631
129  1 0.0000 0.000000  7.457870 26.169631
130  1 0.0000 4.214158  5.024846 26.158202
131  1 0.0000 2.809439  7.457870 26.169631
132  1 0.0000 7.023597  9.890908 26.180961
133  1 0.0000 1.404719  9.890908 26.180961
134  1 0.0000 5.618878 12.323932 26.192390
135  1 0.0000 0.000000 12.323932 26.192390
136  1 0.0000 4.214158  9.890908 26.180961
137  1 0.0000 2.809439 12.323932 26.192390
138  1 0.0000 5.618878  5.814682 30.816393
139  1 0.0000 0.000000  5.814682 30.816393
140  1 0.0000 7.023597  8.247706 30.827723
141  1 0.0000 1.404719  8.247706 30.827723
142  1 0.0000 4.214158  8.247706 30.827723
143  1 0.0000 2.809439  5.814682 30.816393
144  1 0.0000 7.023597  1.770207 28.470228
145  1 0.0000 1.404719  1.770207 28.470228
146  1 0.0000 4.214158  1.770207 28.470228
147  1 0.0000 7.023597  6.636269 28.492988
148  1 0.0000 1.404719  6.636269 28.492988
149  1 0.0000 5.618878  4.203245 28.481558
150  1 0.0000 0.000000  4.203245 28.481558
151  1 0.0000 4.214158  6.636269 28.492988
152  1 0.0000 2.809439  4.203245 28.481558
153  1 0.0000 5.618878  9.069307 28.504367
154  1 0.0000 0.000000  9.069307 28.504367
155  1 0.0000 7.023597 11.502331 28.515796
156  1 0.0000 1.404719 11.502331 28.515796
157  1 0.0000 4.214158 11.502331 28.515796
158  1 0.0000 2.809439  9.069307 28.504367
159  1 0.0000 2.809439  0.948620 30.793585
160  1 0.0000 2.809439 13.935369 28.527126
161  1 0.0000 0.000000  0.948620 30.793585
162  1 0.0000 0.000000 13.935369 28.527126
163  1 0.0000 5.618878  0.948620 30.793585
164  1 0.0000 5.618878 13.935369 28.527126
165  1 0.0000 7.023597  3.381644 30.804964
166  1 0.0000 1.404719  3.381644 30.804964
167  1 0.0000 4.214158  3.381644 30.804964
168  1 0.0000 5.618878  7.426119 33.151178
169  1 0.0000 0.000000  7.426119 33.151178
170  1 0.0000 7.023597  9.859143 33.162558
171  1 0.0000 1.404719  9.859143 33.162558
172  1 0.0000 4.214158  9.859143 33.162558
173  1 0.0000 2.809439  7.426119 33.151178
174  1 0.0000 5.618878 12.292181 33.173937
175  1 0.0000 0.000000 12.292181 33.173937
176  1 0.0000 2.809439 12.292181 33.173937
177  1 0.0000 4.214158  0.127019 33.116990
178  1 0.0000 4.214158 13.113767 30.850532
179  1 0.0000 5.618878 10.680744 30.839152
180  1 0.0000 0.000000 10.680744 30.839152
181  1 0.0000 7.023597  0.127019 33.116990
182  1 0.0000 7.023597 13.113767 30.850532
183  1 0.0000 1.404719  0.127019 33.116990
184  1 0.0000 1.404719 13.113767 30.850532
185  1 0.0000 2.809439 10.680744 30.839152
186  1 0.0000 5.618878  2.560057 33.128370
187  1 0.0000 0.000000  2.560057 33.128370
188  1 0.0000 7.023597  4.993081 33.139749
189  1 0.0000 1.404719  4.993081 33.139749
190  1 0.0000 4.214158  4.993081 33.139749
191  1 0.0000 2.809439  2.560057 33.128370
192  1 0.0000 5.618878 12.260430 40.155534
193  1 0.0000 0.000000 12.260430 40.155534
194  1 0.0000 2.809439 12.260430 40.155534
195  1 0.0000 7.023597  9.827391 40.144105
196  1 0.0000 1.404719  9.827391 40.144105
197  1 0.0000 4.214158  9.827391 40.144105
198  1 0.0000 5.618878  5.782931 37.797940
199  1 0.0000 0.000000  5.782931 37.797940
200  1 0.0000 7.023597  8.215955 37.809319
201  1 0.0000 1.404719  8.215955 37.809319
202  1 0.0000 4.214158  8.215955 37.809319
203  1 0.0000 2.809439  5.782931 37.797940
204  1 0.0000 4.214158  0.095268 40.098537
205  1 0.0000 4.214158 13.082016 37.832079
206  1 0.0000 5.618878  2.528291 40.109966
207  1 0.0000 0.000000  2.528291 40.109966
208  1 0.0000 5.618878 10.648993 37.820699
209  1 0.0000 0.000000 10.648993 37.820699
210  1 0.0000 7.023597  0.095268 40.098537
211  1 0.0000 7.023597 13.082016 37.832079
212  1 0.0000 1.404719  0.095268 40.098537
213  1 0.0000 1.404719 13.082016 37.832079
214  1 0.0000 2.809439  2.528291 40.109966
215  1 0.0000 2.809439 10.648993 37.820699
216  1 0.0000 7.023597  4.961330 40.121296
217  1 0.0000 1.404719  4.961330 40.121296
218  1 0.0000 5.618878  7.394353 40.132725
219  1 0.0000 0.000000  7.394353 40.132725
220  1 0.0000 4.214158  4.961330 40.121296
221  1 0.0000 2.809439  7.394353 40.132725
222  1 0.0000 5.618878  9.037556 35.485914
223  1 0.0000 0.000000  9.037556 35.485914
224  1 0.0000 7.023597 11.470579 35.497343
225  1 0.0000 1.404719 11.470579 35.497343
226  1 0.0000 4.214158 11.470579 35.497343
227  1 0.0000 2.809439  9.037556 35.485914
228  1 0.0000 2.809439  0.916869 37.775131
229  1 0.0000 2.809439 13.903618 35.508722
230  1 0.0000 0.000000  0.916869 37.775131
231  1 0.0000 0.000000 13.903618 35.508722
232  1 0.0000 5.618878  0.916869 37.775131
233  1 0.0000 5.618878 13.903618 35.508722
234  1 0.0000 7.023597  3.349893 37.786511
235  1 0.0000 1.404719  3.349893 37.786511
236  1 0.0000 4.214158  3.349893 37.786511
237  1 0.0000 7.023597  1.738456 35.451775
238  1 0.0000 1.404719  1.738456 35.451775
239  1 0.0000 4.214158  1.738456 35.451775
240  1 0.0000 7.023597  6.604518 35.474534
241  1 0.0000 1.404719  6.604518 35.474534
242  1 0.0000 5.618878  4.171494 35.463155
243  1 0.0000 0.000000  4.171494 35.463155
244  1 0.0000 4.214158  6.604518 35.474534
245  1 0.0000 2.809439  4.171494 35.463155
246  1 0.0000 5.109928 11.889672 21.043063
247  2 0.0000 2.810201  9.283550 20.250595
248  2 0.0000 5.339239  7.709008 19.944291
249  2 0.0000 4.472534  5.686806 20.011897
250  2 0.0000 4.328724  3.376345 17.554774
251  2 0.0000 3.038579  5.610935 17.554774
252  2 0.0000 5.618869  5.610935 17.554774
253  2 0.0000 4.328724  8.242406 17.554774
254  2 0.0000 3.038579 10.476997 17.554774
255  2 0.0000 5.618869 10.476997 17.554774
256  2 0.0000 1.404719 12.910020 17.554774
257  2 0.0000 7.252729 12.910020 17.554774
258  2 0.0000 0.114574 10.675430 17.554774
259  2 0.0000 0.114574  5.809368 17.554774
260  2 0.0000 1.404719  8.043973 17.554774
261  2 0.0000 7.252729  8.043973 17.554774
262  2 0.0000 1.404719  3.177897 17.554774
263  2 0.0000 7.252729  3.177897 17.554774
264  2 0.0000 0.114574  0.943306 17.554774
265  2 0.0000 4.328724 13.108468 17.554774
266  2 0.0000 3.038579  0.744873 17.554774
267  2 0.0000 5.618869  0.744873 17.554774
268  2 0.0000 5.848010  4.121203 15.373118
269  2 0.0000 7.138155  1.489732 15.373118
270  2 0.0000 4.214150  1.688180 15.373118
271  2 0.0000 5.848010 13.853327 15.373118
272  2 0.0000 7.138155 11.221855 15.373118
273  2 0.0000 4.214150 11.420303 15.373118
274  2 0.0000 5.848010  8.987265 15.373118
275  2 0.0000 7.138155  6.355794 15.373118
276  2 0.0000 4.214150  6.554241 15.373118
277  2 0.0000 0.000000  4.121203 15.373118
278  2 0.0000 2.924005  3.922755 15.373118
279  2 0.0000 1.633860  6.554241 15.373118
280  2 0.0000 1.633860  1.688165 15.373118
281  2 0.0000 0.000000 13.853327 15.373118
282  2 0.0000 2.924005 13.654879 15.373118
283  2 0.0000 0.000000  8.987265 15.373118
284  2 0.0000 2.924005  8.788817 15.373118
285  2 0.0000 1.633860 11.420303 15.373118
286  2 0.0000 3.038579 13.853327 11.009756
287  2 0.0000 1.404719 11.420303 11.009756
288  2 0.0000 4.328724 11.221855 11.009756
289  2 0.0000 3.038579  8.987265 11.009756
290  2 0.0000 1.404719  6.554241 11.009756
291  2 0.0000 4.328724  6.355794 11.009756
292  2 0.0000 5.618869  4.121203 11.009756
293  2 0.0000 0.114574  3.922755 11.009756
294  2 0.0000 7.252729  6.554241 11.009756
295  2 0.0000 0.114574 13.654894 11.009756
296  2 0.0000 5.618869 13.853327 11.009756
297  2 0.0000 7.252729  1.688180 11.009756
298  2 0.0000 7.252729 11.420303 11.009756
299  2 0.0000 5.618869  8.987265 11.009756
300  2 0.0000 0.114574  8.788817 11.009756
301  2 0.0000 3.038579  4.121203 11.009756
302  2 0.0000 4.328724  1.489732 11.009756
303  2 0.0000 1.404719  1.688165 11.009756
304  2 0.0000 5.733444  0.943306 13.191412
305  2 0.0000 2.809439  0.744873 13.191412
306  2 0.0000 4.443290 12.910020 13.191412
307  2 0.0000 0.229140  5.610935 13.191412
308  2 0.0000 7.023589  8.043959 13.191412
309  2 0.0000 1.519294  8.242406 13.191412
310  2 0.0000 0.229140  0.744873 13.191412
311  2 0.0000 7.023589  3.177897 13.191412
312  2 0.0000 1.519294  3.376345 13.191412
313  2 0.0000 4.443290  3.177897 13.191412
314  2 0.0000 5.733444  5.809368 13.191412
315  2 0.0000 2.809439  5.610935 13.191412
316  2 0.0000 0.229140 10.476997 13.191412
317  2 0.0000 7.023589 12.910020 13.191412
318  2 0.0000 1.519294 13.108468 13.191412
319  2 0.0000 4.443290  8.043959 13.191412
320  2 0.0000 5.733444 10.675430 13.191412
321  2 0.0000 2.809439 10.476997 13.191412
322  2 0.0000 3.038579 10.476997  4.464739
323  2 0.0000 1.404719 12.910020  4.464739
324  2 0.0000 4.328724 13.108468  4.464739
325  2 0.0000 7.252729  3.177897  4.464739
326  2 0.0000 0.114574  5.809368  4.464739
327  2 0.0000 5.618869  5.610935  4.464739
328  2 0.0000 0.114574 10.675430  4.464739
329  2 0.0000 5.618869 10.476997  4.464739
330  2 0.0000 7.252729  8.043959  4.464739
331  2 0.0000 0.114574  0.943306  4.464739
332  2 0.0000 5.618869  0.744873  4.464739
333  2 0.0000 7.252729 12.910020  4.464739
334  2 0.0000 1.404719  8.043959  4.464739
335  2 0.0000 4.328724  8.242406  4.464739
336  2 0.0000 3.038579  5.610920  4.464739
337  2 0.0000 1.404719  3.177897  4.464739
338  2 0.0000 4.328724  3.376345  4.464739
339  2 0.0000 3.038579  0.744859  4.464739
340  2 0.0000 0.229140  8.987265  6.646444
341  2 0.0000 7.023589  6.554241  6.646444
342  2 0.0000 1.519294  6.355794  6.646444
343  2 0.0000 5.733444  8.788832  6.646444
344  2 0.0000 2.809439  8.987265  6.646444
345  2 0.0000 4.443290 11.420303  6.646444
346  2 0.0000 0.229140 13.853327  6.646444
347  2 0.0000 7.023589 11.420303  6.646444
348  2 0.0000 1.519294 11.221855  6.646444
349  2 0.0000 4.443290  1.688165  6.646444
350  2 0.0000 5.733444 13.654894  6.646444
351  2 0.0000 2.809439 13.853327  6.646444
352  2 0.0000 0.229140  4.121203  6.646444
353  2 0.0000 1.519294  1.489732  6.646444
354  2 0.0000 7.023589  1.688165  6.646444
355  2 0.0000 2.809439  4.121203  6.646444
356  2 0.0000 5.733444  3.922755  6.646444
357  2 0.0000 4.443290  6.554241  6.646444
358  2 0.0000 5.848010 10.476997  8.828100
359  2 0.0000 7.138155 13.108468  8.828100
360  2 0.0000 0.000000 10.476997  8.828100
361  2 0.0000 1.633860 12.910020  8.828100
362  2 0.0000 4.214150  8.043959  8.828100
363  2 0.0000 5.848010  5.610935  8.828100
364  2 0.0000 7.138155  8.242406  8.828100
365  2 0.0000 1.633860  8.043959  8.828100
366  2 0.0000 2.924005 10.675430  8.828100
367  2 0.0000 4.214150  3.177897  8.828100
368  2 0.0000 5.848010  0.744873  8.828100
369  2 0.0000 7.138155  3.376345  8.828100
370  2 0.0000 1.633860  3.177897  8.828100
371  2 0.0000 2.924005  5.809368  8.828100
372  2 0.0000 2.924005  0.943306  8.828100
373  2 0.0000 4.214150 12.910020  8.828100
374  2 0.0000 0.000000  0.744859  8.828100
375  2 0.0000 0.000000  5.610920  8.828100
376  2 0.0000 3.874340  3.715880 20.326604
377  2 0.0000 6.246078  4.239046 20.122861
378  2 0.0000 6.125598  3.859609 20.731243
379  2 0.0000 7.415368 11.386253 21.347211
380  2 0.0000 3.356762  1.898106 19.901796
381  2 0.0000 6.955810 10.655891 20.122798

