ITEM: TIMESTEP
675
ITEM: NUMBER OF ATOMS
18
ITEM: BOX BOUNDS ff ff ff
0.0000000000000000e+00 1.8000000000000000e+01
0.0000000000000000e+00 1.8000000000000000e+01
0.0000000000000000e+00 1.8000000000000000e+01
ITEM: ATOMS id type x y z c_peatom
1 1 7.86674 7.2711 7.32417 -6.82829
9 2 8.07518 6.04663 8.6684 -3.15726
10 2 6.22839 6.97536 6.97487 -2.79175
8 2 7.37277 8.42201 8.70249 -3.16542
2 1 10.6759 8.88196 6.28661 -3.71431
12 2 9.44685 8.84201 7.64063 -4.16684
4 1 10.7562 7.95675 8.87444 -5.08631
13 2 11.6426 9.52103 7.67732 -4.07053
3 1 10.2762 10.916 8.13672 -6.49754
11 2 11.2776 12.0511 7.35307 -2.85933
6 1 7.96997 7.32135 10.1325 -7.68187
15 2 6.67774 6.43387 10.8397 -2.66579
16 2 8.83599 8.29091 11.7265 -3.78032
7 1 10.4361 7.34702 11.6329 -4.74881
18 2 9.86283 6.56475 10.0189 -3.90334
17 2 11.1013 8.82603 10.5454 -4.65496
5 1 9.67041 9.92158 10.7317 -4.72953
14 2 10.7284 11.2525 9.88915 -3.49393
