ITEM: TIMESTEP
816
ITEM: NUMBER OF ATOMS
18
ITEM: BOX BOUNDS ff ff ff
0.0000000000000000e+00 1.8000000000000000e+01
0.0000000000000000e+00 1.8000000000000000e+01
0.0000000000000000e+00 1.8000000000000000e+01
ITEM: ATOMS id type x y z c_peatom 
1 1 8.23998 6.96034 5.98771 -3.88623 
18 2 6.95236 8.19483 6.31361 -4.36068 
2 1 6.5285 7.6951 8.15559 -5.10682 
15 2 8.06555 6.42326 7.71738 -4.43307 
9 2 7.98537 8.8122 8.92285 -4.24702 
3 1 9.48656 7.47369 8.47461 -5.4356 
17 2 6.08654 9.60307 7.9053 -3.41163 
4 1 8.09735 9.74261 7.06147 -6.03557 
12 2 7.54326 11.3758 7.88654 -3.54965 
14 2 9.89242 9.31304 7.75143 -3.39331 
16 2 11.3432 10.6985 8.87503 -2.47733 
8 2 9.33126 6.83083 10.2503 -3.81694 
5 1 10.6898 7.69251 11.0158 -4.49945 
6 1 7.04584 10.5569 9.45219 -5.6275 
10 2 8.63369 11.5103 9.90685 -3.16906 
13 2 9.65352 9.0477 11.4089 -3.50473 
11 2 10.7135 11.0575 11.0566 -2.49273 
7 1 9.9389 10.167 9.77223 -8.94088 
