ITEM: TIMESTEP
480
ITEM: NUMBER OF ATOMS
14
ITEM: BOX BOUNDS ff ff ff
0.0000000000000000e+00 1.8000000000000000e+01
0.0000000000000000e+00 1.8000000000000000e+01
0.0000000000000000e+00 1.8000000000000000e+01
ITEM: ATOMS id type x y z c_peatom 
11 2 8.20619 7.32448 8.61412 -3.1543 
13 2 11.3495 8.64872 8.13381 -4.35725 
3 1 5.71967 9.17592 7.55381 -2.95486 
2 1 8.84354 11.9625 8.94326 -4.66431 
6 1 8.24267 9.2841 8.96064 -7.22315 
9 2 9.09255 10.6742 7.57925 -3.98804 
1 1 10.9573 10.4562 7.98335 -4.74278 
14 2 7.71932 5.88685 10.7209 -2.82664 
12 2 7.79388 8.43475 10.6151 -3.20262 
4 1 6.85762 7.02668 9.81006 -6.84744 
5 1 10.9959 8.56749 9.84274 -3.8661 
8 2 7.53137 10.9999 9.62218 -3.65993 
10 2 6.18534 9.19414 9.15957 -4.53763 
7 2 10.0104 10.2616 9.67581 -4.2316 
