ITEM: TIMESTEP
380
ITEM: NUMBER OF ATOMS
18
ITEM: BOX BOUNDS ff ff ff
0.0000000000000000e+00 1.8000000000000000e+01
0.0000000000000000e+00 1.8000000000000000e+01
0.0000000000000000e+00 1.8000000000000000e+01
ITEM: ATOMS id type x y z c_peatom
1 1 7.52378 9.09765 5.60212 -4.19355
2 1 7.64234 7.89519 8.06607 -7.14662
8 2 7.25046 7.45981 6.20016 -3.70759
3 1 10.2582 8.66421 6.73025 -5.92872
9 2 11.895 8.27263 6.96664 -2.90408
10 2 9.66611 7.64797 8.21955 -3.36661
4 1 8.52354 10.8094 7.93163 -4.53933
11 2 7.05906 9.66587 7.28261 -4.19345
12 2 10.3048 10.1378 7.91199 -3.8102
13 2 6.37845 7.21223 9.01739 -2.72788
14 2 11.5426 7.82056 9.64756 -2.48685
15 2 9.90572 8.07859 11.4747 -3.6078
6 1 7.80347 10.5247 10.8021 -3.6881
16 2 8.25081 9.51436 9.27865 -4.48763
5 1 10.2834 9.02231 9.74569 -9.40145
17 2 9.57728 10.6452 11.1572 -4.42482
18 2 11.4642 10.2858 9.89261 -2.51432
7 1 9.70138 9.43982 12.5483 -4.23137
