ITEM: TIMESTEP
1077
ITEM: NUMBER OF ATOMS
18
ITEM: BOX BOUNDS ff ff ff
0.0000000000000000e+00 1.8000000000000000e+01
0.0000000000000000e+00 1.8000000000000000e+01
0.0000000000000000e+00 1.8000000000000000e+01
ITEM: ATOMS id type x y z c_peatom 
13 2 9.3338 8.82379 5.78426 -3.30895 
1 1 7.64441 8.86276 6.74049 -6.68692 
3 1 8.78364 6.51967 8.05381 -5.13467 
11 2 7.68213 6.91711 6.66973 -3.46023 
15 2 8.7504 8.44829 8.34004 -4.06178 
4 1 10.3431 8.8926 7.34231 -6.33912 
14 2 10.3665 6.94582 7.24406 -3.44958 
18 2 6.81197 9.68799 8.32117 -2.96441 
9 2 8.76137 10.4795 7.26789 -3.20757 
8 2 10.3819 10.372 8.88776 -3.50657 
12 2 10.6918 7.77542 10.4206 -3.84831 
6 1 12.3144 7.32823 9.85319 -4.42971 
2 1 8.33792 10.4803 9.16135 -7.99047 
5 1 8.73706 10.3739 11.987 -2.92201 
10 2 8.95074 9.24875 10.7534 -4.6602 
7 1 11.0308 9.62806 10.4863 -5.83713 
17 2 12.6836 9.03519 9.66627 -3.79034 
16 2 8.00817 12.1724 9.32039 -2.61077 
