ITEM: TIMESTEP
1027
ITEM: NUMBER OF ATOMS
18
ITEM: BOX BOUNDS ff ff ff
0.0000000000000000e+00 1.8000000000000000e+01
0.0000000000000000e+00 1.8000000000000000e+01
0.0000000000000000e+00 1.8000000000000000e+01
ITEM: ATOMS id type x y z c_peatom
1 1 6.79373 8.51234 7.99489 -5.37638
8 2 7.92261 6.94454 8.55914 -3.55828
13 2 7.88793 8.65498 6.45548 -3.89913
2 1 9.27707 7.44493 7.21862 -5.79452
10 2 10.3778 7.63221 8.79754 -3.60061
9 2 6.42437 10.2427 8.63576 -3.48439
11 2 8.64225 9.12233 8.5731 -3.80683
3 1 10.7475 9.63117 8.78455 -5.93737
4 1 9.0525 10.2883 6.70355 -5.29048
12 2 10.4386 9.07649 6.88868 -4.00914
14 2 9.71697 11.1259 8.25021 -3.47008
15 2 7.97767 8.80049 11.5677 -3.81917
7 1 8.90834 7.66436 10.1983 -7.61021
18 2 9.40327 6.28561 11.1146 -2.64656
17 2 10.3861 8.95293 10.6779 -3.75103
6 1 6.89191 10.0508 10.4335 -5.36358
16 2 8.33757 11.1018 10.442 -3.87527
5 1 9.32094 10.1364 11.6922 -4.95267
