ITEM: TIMESTEP
70
ITEM: NUMBER OF ATOMS
389
ITEM: BOX BOUNDS pp pp pp
0.0000000000000000e+00 8.4283000000000001e+00
0.0000000000000000e+00 1.4598200000000000e+01
0.0000000000000000e+00 4.9476269000000002e+01
ITEM: ATOMS id type x y z c_peatom
72 1 2.92401 12.1652 3.61953 -2.2941
73 1 7.13816 4.86606 3.61953 -2.29409
74 1 5.73344 7.2991 5.31004 -6.5982
75 1 7.13816 9.73214 3.61953 -2.29409
76 1 5.73344 12.1652 5.31004 -6.5982
77 1 7.13816 0 3.61953 -2.29408
78 1 5.73344 2.43304 5.31004 -6.5982
79 1 2.92401 7.2991 3.61953 -2.29408
80 1 1.51929 9.73212 5.31004 -6.59819
81 1 2.92401 2.43304 3.61953 -2.29408
82 1 1.51929 4.86606 5.31004 -6.5982
83 1 1.51929 0 5.31004 -6.59819
84 1 0.114574 7.2991 5.80124 -6.54405
85 1 4.32872 9.73212 5.80124 -6.54404
86 1 2.92401 7.2991 7.4917 -6.40207
87 1 0.114574 12.1652 5.80124 -6.54405
88 1 7.13816 9.73214 7.4917 -6.40206
89 1 4.32872 0 5.80124 -6.54405
90 1 2.92401 12.1652 7.4917 -6.40208
91 1 0.114574 2.43304 5.80124 -6.54404
92 1 7.13816 0 7.4917 -6.40207
93 1 4.32872 4.86606 5.80124 -6.54403
94 1 2.92401 2.43304 7.4917 -6.40207
95 1 7.13816 4.86606 7.4917 -6.40206
96 1 5.73344 12.1652 7.98285 -6.40205
99 1 5.73344 7.2991 7.98285 -6.40204
100 1 1.51929 9.73212 7.98285 -6.40204
103 1 5.73344 2.43304 7.98285 -6.40204
104 1 1.51929 4.86606 7.98285 -6.40204
106 1 1.51929 0 7.98285 -6.40204
108 1 4.32872 9.73212 3.12833 -3.27315
109 1 4.32872 4.86606 3.12833 -3.27316
110 1 0.114574 12.1652 3.12833 -3.27315
111 1 0.114574 2.43304 3.12833 -3.27315
112 1 0.114574 7.2991 3.12833 -3.27315
113 1 4.32872 0 3.12833 -3.27314
325 2 3.03858 10.477 4.46474 -3.32409
326 2 1.40472 12.91 4.46474 -3.32409
327 2 4.32872 13.1085 4.46474 -3.32408
328 2 7.25273 3.1779 4.46474 -3.32408
329 2 0.114574 5.80937 4.46474 -3.32409
330 2 5.61887 5.61093 4.46474 -3.32408
331 2 0.114574 10.6754 4.46474 -3.32409
332 2 5.61887 10.477 4.46474 -3.32408
333 2 7.25273 8.04396 4.46474 -3.32409
334 2 0.114574 0.943306 4.46474 -3.32409
335 2 5.61887 0.744873 4.46474 -3.32408
336 2 7.25273 12.91 4.46474 -3.32408
337 2 1.40472 8.04396 4.46474 -3.32407
338 2 4.32872 8.24241 4.46474 -3.32408
339 2 3.03858 5.61092 4.46474 -3.32409
340 2 1.40472 3.1779 4.46474 -3.32408
341 2 4.32872 3.37635 4.46474 -3.32409
342 2 3.03858 0.744859 4.46474 -3.32408
343 2 0.22914 8.98727 6.64644 -4.12705
344 2 7.02359 6.55424 6.64644 -4.12705
345 2 1.51929 6.35579 6.64644 -4.12705
346 2 5.73344 8.78883 6.64644 -4.12705
347 2 2.80944 8.98727 6.64644 -4.12704
348 2 4.44329 11.4203 6.64644 -4.12706
349 2 0.22914 13.8533 6.64644 -4.12706
350 2 7.02359 11.4203 6.64644 -4.12704
351 2 1.51929 11.2219 6.64644 -4.12706
352 2 4.44329 1.68816 6.64644 -4.12706
353 2 5.73344 13.6549 6.64644 -4.12705
354 2 2.80944 13.8533 6.64644 -4.12705
355 2 0.22914 4.1212 6.64644 -4.12705
356 2 1.51929 1.48973 6.64644 -4.12705
357 2 7.02359 1.68816 6.64644 -4.12705
358 2 2.80944 4.1212 6.64644 -4.12704
359 2 5.73344 3.92275 6.64644 -4.12704
360 2 4.44329 6.55424 6.64644 -4.12706
36 1 5.73344 2.43304 14.5279 -6.40125
37 1 4.32872 4.86606 16.2184 -6.40484
38 1 5.73344 12.1652 14.5279 -6.40126
39 1 5.73344 7.2991 14.5279 -6.40126
40 1 4.32872 9.73212 16.2184 -6.40117
41 1 1.51928 4.86606 14.5279 -6.40124
42 1 0.114574 2.43304 16.2184 -6.33753
43 1 1.51928 0 14.5279 -6.40125
44 1 0.114574 12.1652 16.2184 -6.37938
45 1 1.51928 9.73212 14.5279 -6.40124
46 1 0.114574 7.2991 16.2184 -6.27569
47 1 4.32872 0 16.2184 -6.29366
48 1 2.92401 12.1652 10.1646 -6.40196
49 1 2.92401 7.2991 10.1646 -6.40195
50 1 1.51929 9.73212 11.855 -6.4021
51 1 7.13816 4.86606 10.1646 -6.40194
52 1 5.73344 2.43304 11.855 -6.40212
53 1 7.13816 0 10.1646 -6.40195
54 1 5.73344 12.1652 11.855 -6.40212
55 1 7.13816 9.73214 10.1646 -6.40194
56 1 5.73344 7.2991 11.855 -6.40212
57 1 2.92401 2.43304 10.1646 -6.40195
58 1 1.51929 0 11.855 -6.40212
59 1 1.51929 4.86606 11.855 -6.4021
60 1 4.32872 0 12.3462 -6.40196
61 1 2.92401 2.43304 14.0367 -6.38416
62 1 7.13816 0 14.0367 -6.38415
63 1 0.114574 7.2991 12.3462 -6.40197
64 1 0.114574 2.43304 12.3462 -6.40196
65 1 7.13816 4.86606 14.0367 -6.38415
66 1 4.32872 4.86606 12.3462 -6.40196
67 1 2.92401 7.2991 14.0367 -6.38417
68 1 0.114574 12.1652 12.3462 -6.40197
69 1 4.32872 9.73212 12.3462 -6.40196
70 1 7.13816 9.73214 14.0367 -6.38415
71 1 2.92401 12.1652 14.0367 -6.38418
97 1 0.114574 12.1652 9.67335 -6.40208
98 1 4.32872 9.73212 9.67335 -6.40207
101 1 0.114574 7.2991 9.67335 -6.40207
102 1 4.32872 4.86606 9.67335 -6.40207
105 1 0.114574 2.43304 9.67335 -6.40207
107 1 4.32872 0 9.67335 -6.40207
271 2 5.84801 4.1212 15.3731 -4.12743
272 2 7.13816 1.48973 15.3731 -4.12743
273 2 4.21415 1.68818 15.3731 -4.12744
274 2 5.84801 13.8533 15.3731 -4.12743
275 2 7.13816 11.2219 15.3731 -4.12743
276 2 4.21415 11.4203 15.3731 -4.12745
277 2 5.84801 8.98727 15.3731 -4.12743
278 2 7.13816 6.35579 15.3731 -4.12744
279 2 4.21415 6.55424 15.3731 -4.12745
280 2 0 4.1212 15.3731 -4.12742
281 2 2.92401 3.92275 15.3731 -4.12744
282 2 1.63386 6.55424 15.3731 -4.12744
283 2 1.63386 1.68816 15.3731 -4.12743
284 2 0 13.8533 15.3731 -4.12744
285 2 2.92401 13.6549 15.3731 -4.12745
286 2 0 8.98727 15.3731 -4.12744
287 2 2.92401 8.78882 15.3731 -4.12744
288 2 1.63386 11.4203 15.3731 -4.12744
289 2 3.03858 13.8533 11.0098 -4.12708
290 2 1.40472 11.4203 11.0098 -4.12708
291 2 4.32872 11.2219 11.0098 -4.12709
292 2 3.03858 8.98727 11.0098 -4.12707
293 2 1.40472 6.55424 11.0098 -4.12709
294 2 4.32872 6.35579 11.0098 -4.12709
295 2 5.61887 4.1212 11.0098 -4.12707
296 2 0.114574 3.92275 11.0098 -4.12708
297 2 7.25273 6.55424 11.0098 -4.12709
298 2 0.114574 13.6549 11.0098 -4.12709
299 2 5.61887 13.8533 11.0098 -4.12707
300 2 7.25273 1.68818 11.0098 -4.12709
301 2 7.25273 11.4203 11.0098 -4.12707
302 2 5.61887 8.98727 11.0098 -4.12708
303 2 0.114574 8.78882 11.0098 -4.12709
304 2 3.03858 4.1212 11.0098 -4.12707
305 2 4.32872 1.48973 11.0098 -4.12708
306 2 1.40472 1.68816 11.0098 -4.12708
307 2 5.73344 0.943306 13.1914 -4.12709
308 2 2.80944 0.744873 13.1914 -4.12708
309 2 4.44329 12.91 13.1914 -4.1271
310 2 0.22914 5.61093 13.1914 -4.12709
311 2 7.02359 8.04396 13.1914 -4.12709
312 2 1.51929 8.24241 13.1914 -4.12708
313 2 0.22914 0.744873 13.1914 -4.12709
314 2 7.02359 3.1779 13.1914 -4.12708
315 2 1.51929 3.37635 13.1914 -4.12708
316 2 4.44329 3.1779 13.1914 -4.12709
317 2 5.73344 5.80937 13.1914 -4.1271
318 2 2.80944 5.61093 13.1914 -4.12709
319 2 0.22914 10.477 13.1914 -4.12709
320 2 7.02359 12.91 13.1914 -4.12709
321 2 1.51929 13.1085 13.1914 -4.12709
322 2 4.44329 8.04396 13.1914 -4.12709
323 2 5.73344 10.6754 13.1914 -4.12709
324 2 2.80944 10.477 13.1914 -4.12709
361 2 5.84801 10.477 8.8281 -4.12712
362 2 7.13816 13.1085 8.8281 -4.12713
363 2 0 10.477 8.8281 -4.12713
364 2 1.63386 12.91 8.8281 -4.12713
365 2 4.21415 8.04396 8.8281 -4.12713
366 2 5.84801 5.61093 8.8281 -4.12712
367 2 7.13816 8.24241 8.8281 -4.12713
368 2 1.63386 8.04396 8.8281 -4.12711
369 2 2.92401 10.6754 8.8281 -4.12713
370 2 4.21415 3.1779 8.8281 -4.12712
371 2 5.84801 0.744873 8.8281 -4.12712
372 2 7.13816 3.37635 8.8281 -4.12712
373 2 1.63386 3.1779 8.8281 -4.12711
374 2 2.92401 5.80937 8.8281 -4.12713
375 2 2.92401 0.943306 8.8281 -4.12713
376 2 4.21415 12.91 8.8281 -4.12713
377 2 0 0.744859 8.8281 -4.12713
378 2 0 5.61092 8.8281 -4.12714
1 1 5.61888 0.980371 23.812 -3.2098
2 1 0 0.980371 23.812 -3.19782
3 1 2.80944 0.980371 23.812 -3.0603
16 1 5.61888 10.7125 23.8576 -3.13529
17 1 0 10.7125 23.8576 -2.94823
18 1 7.13816 0 19.0018 -5.26514
19 1 6.59538 0.41399 21.3778 -2.63334
20 1 0.12092 2.05402 20.9663 -2.58542
21 1 7.54602 4.14306 21.7168 -3.75681
22 1 2.92401 7.2991 19.0018 -4.1041
23 1 2.17215 6.67589 21.5013 -3.86461
24 1 4.32872 4.86606 18.5106 -3.05724
25 1 2.92401 7.2991 16.7095 -6.5022
26 1 4.32872 9.73212 18.5106 -3.09028
27 1 2.92401 12.1652 16.7095 -6.51678
28 1 0.114574 12.1652 18.5106 -4.30601
29 1 0.114574 7.2991 18.5106 -7.49381
30 1 7.13816 9.73214 16.7095 -6.51469
31 1 0.114574 2.43304 18.5106 -5.42555
32 1 7.13816 4.86606 16.7095 -6.42081
33 1 4.32872 0 18.5106 -7.47237
34 1 2.92401 2.43304 16.7095 -6.54397
35 1 7.13816 0 16.7095 -6.47573
114 1 7.11269 8.16947 20.937 -2.25101
115 1 2.92401 12.1652 19.0018 -4.85242
116 1 7.13816 4.86606 19.0018 -6.5051
117 1 7.13816 9.73214 19.0018 -3.96063
118 1 2.92401 2.43304 19.0018 -3.89998
119 1 4.13475 4.51263 21.4417 -1.85446
120 1 7.0236 8.27947 23.8462 -3.15626
121 1 4.06959 0.133398 21.1371 -3.6328
122 1 5.29366 10.3853 20.8066 -1.06291
123 1 2.80944 10.7125 23.8576 -2.95623
124 1 7.0236 3.41341 23.8235 -3.01331
125 1 1.40472 3.41341 23.8235 -3.06295
126 1 1.40472 8.27947 23.8462 -3.07799
127 1 5.61888 5.84643 23.8348 -3.15631
128 1 0 5.84643 23.8348 -3.13836
129 1 4.21416 8.27947 23.8462 -2.97404
130 1 4.21416 3.41341 23.8235 -3.20072
131 1 2.80944 5.84643 23.8348 -3.29671
133 1 4.21416 13.1455 23.869 -3.05712
135 1 7.0236 13.1455 23.869 -3.09092
137 1 1.40472 13.1455 23.869 -2.95763
249 2 6.87178 1.77022 19.6854 -3.08672
250 2 5.52513 13.9948 19.8552 -3.39379
251 2 1.39994 7.40499 19.9358 -2.6655
252 2 4.32872 3.37635 17.5548 -3.40359
253 2 3.03858 5.61093 17.5548 -3.40761
254 2 5.61887 5.61093 17.5548 -3.376
255 2 4.32872 8.24241 17.5548 -3.18427
256 2 3.03858 10.477 17.5548 -3.53549
257 2 5.61887 10.477 17.5548 -3.31135
258 2 1.40472 12.91 17.5548 -3.8323
259 2 7.25273 12.91 17.5548 -3.536
260 2 0.114574 10.6754 17.5548 -3.6083
261 2 0.114574 5.80937 17.5548 -4.02431
262 2 1.40472 8.04397 17.5548 -3.71053
263 2 7.25273 8.04397 17.5548 -3.72904
264 2 1.40472 3.1779 17.5548 -3.49967
265 2 7.25273 3.1779 17.5548 -3.55516
266 2 0.114574 0.943306 17.5548 -3.73371
267 2 4.32872 13.1085 17.5548 -3.78565
268 2 3.03858 0.744873 17.5548 -3.89328
269 2 5.61887 0.744873 17.5548 -4.08643
270 2 6.90283 6.8776 19.3976 -3.1928
379 2 0.157253 5.82745 19.8979 -3.23869
380 2 3.27631 10.4375 21.1946 -1.88286
381 2 0.295387 5.82285 21.1569 -2.96932
382 2 4.40371 1.49004 19.6474 -3.12964
383 2 2.92211 13.9884 19.64 -2.94978
384 2 8.39644 3.81071 19.8623 -3.41326
385 2 1.43438 11.2092 19.4106 -1.98182
386 2 3.76998 11.574 21.4883 -1.88617
387 2 0.0468966 8.79241 19.647 -2.88987
388 2 6.58002 5.31426 20.676 -1.9742
389 2 2.19548 5.57138 19.9041 -1.83855
4 1 7.0236 5.02485 26.1582 -3.38691
5 1 1.40472 5.02485 26.1582 -3.39484
6 1 5.61888 7.45787 26.1696 -3.40595
7 1 0 7.45787 26.1696 -3.40404
8 1 4.21416 5.02485 26.1582 -3.39763
9 1 2.80944 7.45787 26.1696 -3.40944
10 1 7.0236 9.89091 26.181 -3.41723
11 1 1.40472 9.89091 26.181 -3.4257
12 1 5.61888 12.3239 26.1924 -3.41123
13 1 0 12.3239 26.1924 -3.42986
14 1 4.21416 9.89091 26.181 -3.42667
15 1 2.80944 12.3239 26.1924 -3.43117
132 1 4.21416 0.158785 26.1354 -3.40731
134 1 7.0236 0.158785 26.1354 -3.39582
136 1 1.40472 0.158785 26.1354 -3.39999
138 1 5.61888 2.59181 26.1468 -3.36781
139 1 0 2.59181 26.1468 -3.40202
140 1 2.80944 2.59181 26.1468 -3.39616
141 1 5.61888 5.81468 30.8164 -3.35104
142 1 0 5.81468 30.8164 -3.35104
143 1 7.0236 8.24771 30.8277 -3.35103
144 1 1.40472 8.24771 30.8277 -3.35103
145 1 4.21416 8.24771 30.8277 -3.35103
146 1 2.80944 5.81468 30.8164 -3.35104
147 1 7.0236 1.77021 28.4702 -3.35207
148 1 1.40472 1.77021 28.4702 -3.35207
149 1 4.21416 1.77021 28.4702 -3.35207
150 1 7.0236 6.63627 28.493 -3.35105
151 1 1.40472 6.63627 28.493 -3.35104
152 1 5.61888 4.20324 28.4816 -3.35108
153 1 0 4.20324 28.4816 -3.35108
154 1 4.21416 6.63627 28.493 -3.35104
155 1 2.80944 4.20324 28.4816 -3.35108
156 1 5.61888 9.06931 28.5044 -3.35104
157 1 0 9.06931 28.5044 -3.35104
158 1 7.0236 11.5023 28.5158 -3.35223
159 1 1.40472 11.5023 28.5158 -3.35223
160 1 4.21416 11.5023 28.5158 -3.35223
161 1 2.80944 9.06931 28.5044 -3.35104
162 1 2.80944 0.94862 30.7936 -3.3559
163 1 2.80944 13.9354 28.5271 -3.34153
164 1 0 0.94862 30.7936 -3.3559
165 1 0 13.9354 28.5271 -3.34154
166 1 5.61888 0.94862 30.7936 -3.3559
167 1 5.61888 13.9354 28.5271 -3.34153
168 1 7.0236 3.38164 30.805 -3.34972
169 1 1.40472 3.38164 30.805 -3.34972
170 1 4.21416 3.38164 30.805 -3.34972
181 1 4.21416 13.1138 30.8505 -3.35589
182 1 5.61888 10.6807 30.8392 -3.34972
183 1 0 10.6807 30.8392 -3.34973
185 1 7.0236 13.1138 30.8505 -3.3559
187 1 1.40472 13.1138 30.8505 -3.35589
188 1 2.80944 10.6807 30.8392 -3.34972
171 1 5.61888 7.42612 33.1512 -3.35104
172 1 0 7.42612 33.1512 -3.35104
173 1 7.0236 9.85914 33.1626 -3.35108
174 1 1.40472 9.85914 33.1626 -3.35108
175 1 4.21416 9.85914 33.1626 -3.35108
176 1 2.80944 7.42612 33.1512 -3.35104
177 1 5.61888 12.2922 33.1739 -3.35206
178 1 0 12.2922 33.1739 -3.35206
179 1 2.80944 12.2922 33.1739 -3.35206
180 1 4.21416 0.127019 33.117 -3.34154
184 1 7.0236 0.127019 33.117 -3.34154
186 1 1.40472 0.127019 33.117 -3.34154
189 1 5.61888 2.56006 33.1284 -3.35222
190 1 0 2.56006 33.1284 -3.35222
191 1 7.0236 4.99308 33.1397 -3.35105
192 1 1.40472 4.99308 33.1397 -3.35104
193 1 4.21416 4.99308 33.1397 -3.35104
194 1 2.80944 2.56006 33.1284 -3.35222
195 1 5.61888 12.2604 40.1555 -2.97112
196 1 0 12.2604 40.1555 -2.97112
197 1 2.80944 12.2604 40.1555 -2.97111
198 1 7.0236 9.82739 40.1441 -2.97446
199 1 1.40472 9.82739 40.1441 -2.97446
200 1 4.21416 9.82739 40.1441 -2.97446
201 1 5.61888 5.78293 37.7979 -3.43976
202 1 0 5.78293 37.7979 -3.43976
203 1 7.0236 8.21595 37.8093 -3.43975
204 1 1.40472 8.21595 37.8093 -3.43975
205 1 4.21416 8.21595 37.8093 -3.43975
206 1 2.80944 5.78293 37.7979 -3.43976
207 1 4.21416 0.095268 40.0985 -2.9788
208 1 4.21416 13.082 37.8321 -3.44396
209 1 5.61888 2.52829 40.11 -2.97213
210 1 0 2.52829 40.11 -2.97213
211 1 5.61888 10.649 37.8207 -3.43844
212 1 0 10.649 37.8207 -3.43844
213 1 7.0236 0.095268 40.0985 -2.97881
214 1 7.0236 13.082 37.8321 -3.44396
215 1 1.40472 0.095268 40.0985 -2.97881
216 1 1.40472 13.082 37.8321 -3.44396
217 1 2.80944 2.52829 40.11 -2.97213
218 1 2.80944 10.649 37.8207 -3.43844
219 1 7.0236 4.96133 40.1213 -2.97443
220 1 1.40472 4.96133 40.1213 -2.97443
221 1 5.61888 7.39435 40.1327 -2.97441
222 1 0 7.39435 40.1327 -2.97442
223 1 4.21416 4.96133 40.1213 -2.97442
224 1 2.80944 7.39435 40.1327 -2.97441
225 1 5.61888 9.03756 35.4859 -3.35104
226 1 0 9.03756 35.4859 -3.35105
227 1 7.0236 11.4706 35.4973 -3.35223
228 1 1.40472 11.4706 35.4973 -3.35223
229 1 4.21416 11.4706 35.4973 -3.35223
230 1 2.80944 9.03756 35.4859 -3.35104
231 1 2.80944 0.916869 37.7751 -3.4418
232 1 2.80944 13.9036 35.5087 -3.34154
233 1 0 0.916869 37.7751 -3.44181
234 1 0 13.9036 35.5087 -3.34155
235 1 5.61888 0.916869 37.7751 -3.4418
236 1 5.61888 13.9036 35.5087 -3.34154
237 1 7.0236 3.34989 37.7865 -3.43844
238 1 1.40472 3.34989 37.7865 -3.43843
239 1 4.21416 3.34989 37.7865 -3.43843
240 1 7.0236 1.73846 35.4518 -3.35208
241 1 1.40472 1.73846 35.4518 -3.35207
242 1 4.21416 1.73846 35.4518 -3.35207
243 1 7.0236 6.60452 35.4745 -3.35104
244 1 1.40472 6.60452 35.4745 -3.35104
245 1 5.61888 4.17149 35.4632 -3.35108
246 1 0 4.17149 35.4632 -3.35108
247 1 4.21416 6.60452 35.4745 -3.35104
248 1 2.80944 4.17149 35.4632 -3.35108
