 144 144   0   0
  0.1416920E+02  0.8428300E-09  0.1459820E-08  0.1658321E-08  0.5000000E-15
  1.000000000000000E-004
  CAR 
 Al_Al2O3                                
     12.04075518    -21.52059619  301      6.52186668      1.00000000
    -21.521  0.0000E+00  0.0000E+00
    -21.409  0.0000E+00  0.0000E+00
    -21.297  0.0000E+00  0.0000E+00
    -21.185  0.0000E+00  0.0000E+00
    -21.073  0.0000E+00  0.0000E+00
    -20.961  0.0000E+00  0.0000E+00
    -20.849 -0.8648E-32 -0.9674E-33
    -20.737 -0.4304E-24 -0.4815E-25
    -20.626 -0.1713E-17 -0.1916E-18
    -20.514 -0.5207E-12 -0.5825E-13
    -20.402 -0.1252E-07 -0.1401E-08
    -20.290 -0.2205E-04 -0.2469E-05
    -20.178 -0.2351E-02 -0.2654E-03
    -20.066  0.8798E-02  0.7188E-03
    -19.954  0.1392E+00  0.1629E-01
    -19.843  0.3790E-01  0.2053E-01
    -19.731 -0.4634E-02  0.2001E-01
    -19.619 -0.1061E-03  0.2000E-01
    -19.507 -0.1256E-06  0.2000E-01
    -19.395 -0.1059E-10  0.2000E-01
    -19.283 -0.7939E-16  0.2000E-01
    -19.171  0.0000E+00  0.2000E-01
    -19.059  0.0000E+00  0.2000E-01
    -18.948  0.0000E+00  0.2000E-01
    -18.836  0.0000E+00  0.2000E-01
    -18.724  0.0000E+00  0.2000E-01
    -18.612  0.0000E+00  0.2000E-01
    -18.500  0.0000E+00  0.2000E-01
    -18.388  0.0000E+00  0.2000E-01
    -18.276  0.0000E+00  0.2000E-01
    -18.164  0.0000E+00  0.2000E-01
    -18.053  0.0000E+00  0.2000E-01
    -17.941  0.0000E+00  0.2000E-01
    -17.829  0.0000E+00  0.2000E-01
    -17.717  0.0000E+00  0.2000E-01
    -17.605  0.0000E+00  0.2000E-01
    -17.493  0.0000E+00  0.2000E-01
    -17.381  0.0000E+00  0.2000E-01
    -17.269  0.0000E+00  0.2000E-01
    -17.158  0.0000E+00  0.2000E-01
    -17.046  0.0000E+00  0.2000E-01
    -16.934  0.0000E+00  0.2000E-01
    -16.822  0.0000E+00  0.2000E-01
    -16.710  0.0000E+00  0.2000E-01
    -16.598  0.0000E+00  0.2000E-01
    -16.486  0.0000E+00  0.2000E-01
    -16.375 -0.1780E-31  0.2000E-01
    -16.263 -0.7333E-24  0.2000E-01
    -16.151 -0.2415E-17  0.2000E-01
    -16.039 -0.6060E-12  0.2000E-01
    -15.927 -0.1201E-07  0.2000E-01
    -15.815 -0.1732E-04  0.2000E-01
    -15.703 -0.1463E-02  0.1983E-01
    -15.591  0.7197E-02  0.2064E-01
    -15.480  0.6795E-01  0.2824E-01
    -15.368  0.5548E-01  0.3445E-01
    -15.256  0.1560E+00  0.5190E-01
    -15.144  0.1843E+00  0.7252E-01
    -15.032  0.1534E+00  0.8968E-01
    -14.920  0.1762E+00  0.1094E+00
    -14.808  0.9119E-01  0.1196E+00
    -14.696  0.1299E+00  0.1341E+00
    -14.585  0.1666E+00  0.1528E+00
    -14.473  0.2426E+00  0.1799E+00
    -14.361  0.2374E+00  0.2065E+00
    -14.249  0.2477E+00  0.2342E+00
    -14.137  0.3169E+00  0.2696E+00
    -14.025  0.2863E+00  0.3017E+00
    -13.913  0.4151E+00  0.3481E+00
    -13.801  0.7344E+00  0.4303E+00
    -13.690  0.5487E+00  0.4917E+00
    -13.578  0.3412E+00  0.5298E+00
    -13.466  0.1856E+00  0.5506E+00
    -13.354  0.1630E+00  0.5688E+00
    -13.242  0.4000E+00  0.6136E+00
    -13.130  0.2795E+00  0.6448E+00
    -13.018  0.1747E+00  0.6644E+00
    -12.907  0.1615E+00  0.6825E+00
    -12.795  0.4029E+00  0.7275E+00
    -12.683  0.4695E+00  0.7800E+00
    -12.571  0.3413E-01  0.7839E+00
    -12.459  0.1342E+00  0.7989E+00
    -12.347  0.9421E-02  0.7999E+00
    -12.235  0.1162E+00  0.8129E+00
    -12.123  0.6943E-01  0.8207E+00
    -12.012 -0.5914E-02  0.8200E+00
    -11.900 -0.3018E-03  0.8200E+00
    -11.788 -0.6285E-06  0.8200E+00
    -11.676 -0.6624E-07  0.8200E+00
    -11.564 -0.6911E-04  0.8200E+00
    -11.452 -0.3948E-02  0.8196E+00
    -11.340  0.2782E-01  0.8227E+00
    -11.228  0.1426E+00  0.8386E+00
    -11.117  0.1536E-01  0.8403E+00
    -11.005 -0.4128E-02  0.8399E+00
    -10.893 -0.1982E-02  0.8396E+00
    -10.781  0.1190E+00  0.8530E+00
    -10.669  0.6288E-01  0.8600E+00
    -10.557  0.6608E-01  0.8674E+00
    -10.445  0.1164E+00  0.8804E+00
    -10.333 -0.2562E-02  0.8801E+00
    -10.222 -0.1630E-02  0.8799E+00
    -10.110 -0.5653E-02  0.8793E+00
     -9.998  0.8994E-01  0.8894E+00
     -9.886  0.9028E-01  0.8995E+00
     -9.774  0.8753E-01  0.9093E+00
     -9.662  0.2680E+00  0.9392E+00
     -9.550  0.9379E-02  0.9403E+00
     -9.439 -0.4500E-02  0.9398E+00
     -9.327  0.1242E+00  0.9537E+00
     -9.215  0.6247E-01  0.9607E+00
     -9.103 -0.5770E-02  0.9600E+00
     -8.991 -0.2453E-03  0.9600E+00
     -8.879 -0.4539E-06  0.9600E+00
     -8.767 -0.1351E-05  0.9600E+00
     -8.655 -0.4862E-03  0.9599E+00
     -8.544 -0.5790E-02  0.9593E+00
     -8.432  0.8660E-01  0.9690E+00
     -8.320  0.1039E+00  0.9806E+00
     -8.208 -0.4625E-02  0.9801E+00
     -8.096 -0.7703E-03  0.9800E+00
     -7.984 -0.2899E-05  0.9800E+00
     -7.872 -0.7256E-09  0.9800E+00
     -7.760 -0.1360E-13  0.9800E+00
     -7.649  0.0000E+00  0.9800E+00
     -7.537  0.0000E+00  0.9800E+00
     -7.425  0.0000E+00  0.9800E+00
     -7.313  0.0000E+00  0.9800E+00
     -7.201  0.0000E+00  0.9800E+00
     -7.089  0.0000E+00  0.9800E+00
     -6.977  0.0000E+00  0.9800E+00
     -6.865  0.0000E+00  0.9800E+00
     -6.754  0.0000E+00  0.9800E+00
     -6.642  0.0000E+00  0.9800E+00
     -6.530  0.0000E+00  0.9800E+00
     -6.418  0.0000E+00  0.9800E+00
     -6.306  0.0000E+00  0.9800E+00
     -6.194  0.0000E+00  0.9800E+00
     -6.082  0.0000E+00  0.9800E+00
     -5.971  0.0000E+00  0.9800E+00
     -5.859  0.0000E+00  0.9800E+00
     -5.747  0.0000E+00  0.9800E+00
     -5.635  0.0000E+00  0.9800E+00
     -5.523  0.0000E+00  0.9800E+00
     -5.411  0.0000E+00  0.9800E+00
     -5.299  0.0000E+00  0.9800E+00
     -5.187 -0.2365E-30  0.9800E+00
     -5.076 -0.6861E-23  0.9800E+00
     -4.964 -0.1590E-16  0.9800E+00
     -4.852 -0.2795E-11  0.9800E+00
     -4.740 -0.3867E-07  0.9800E+00
     -4.628 -0.3839E-04  0.9800E+00
     -4.516 -0.2058E-02  0.9798E+00
     -4.404  0.1507E-01  0.9815E+00
     -4.292  0.7101E-01  0.9894E+00
     -4.181  0.6822E-02  0.9902E+00
     -4.069 -0.2152E-02  0.9899E+00
     -3.957 -0.4266E-02  0.9894E+00
     -3.845  0.9455E-01  0.1000E+01
     -3.733  0.1144E+00  0.1013E+01
     -3.621  0.1377E+00  0.1028E+01
     -3.509  0.1867E-01  0.1030E+01
     -3.397 -0.7178E-02  0.1030E+01
     -3.286  0.5449E-01  0.1036E+01
     -3.174  0.2632E+00  0.1065E+01
     -3.062  0.3604E+00  0.1105E+01
     -2.950  0.4590E+00  0.1157E+01
     -2.838  0.4586E+00  0.1208E+01
     -2.726  0.2387E+00  0.1235E+01
     -2.614  0.4847E-01  0.1240E+01
     -2.502  0.2450E+00  0.1268E+01
     -2.391  0.5760E+00  0.1332E+01
     -2.279  0.5769E+00  0.1397E+01
     -2.167  0.6187E+00  0.1466E+01
     -2.055  0.4653E+00  0.1518E+01
     -1.943  0.2365E+00  0.1544E+01
     -1.831  0.3572E+00  0.1584E+01
     -1.719  0.4386E+00  0.1633E+01
     -1.608  0.6140E+00  0.1702E+01
     -1.496  0.7132E+00  0.1782E+01
     -1.384  0.4045E+00  0.1827E+01
     -1.272  0.3095E+00  0.1862E+01
     -1.160  0.5624E+00  0.1925E+01
     -1.048  0.5532E+00  0.1986E+01
     -0.936  0.4843E+00  0.2041E+01
     -0.824  0.3512E+00  0.2080E+01
     -0.713  0.3049E+00  0.2114E+01
     -0.601  0.3731E+00  0.2156E+01
     -0.489  0.3533E+00  0.2195E+01
     -0.377  0.3579E+00  0.2235E+01
     -0.265  0.4952E+00  0.2291E+01
     -0.153  0.4988E+00  0.2347E+01
     -0.041  0.4783E+00  0.2400E+01
      0.071  0.5066E+00  0.2457E+01
      0.182  0.4507E+00  0.2507E+01
      0.294  0.5536E+00  0.2569E+01
      0.406  0.5811E+00  0.2634E+01
      0.518  0.6863E+00  0.2711E+01
      0.630  0.6380E+00  0.2782E+01
      0.742  0.4932E+00  0.2837E+01
      0.854  0.7043E+00  0.2916E+01
      0.966  0.7526E+00  0.3000E+01
      1.077  0.6889E+00  0.3077E+01
      1.189  0.7807E+00  0.3165E+01
      1.301  0.6169E+00  0.3234E+01
      1.413  0.6780E+00  0.3310E+01
      1.525  0.7501E+00  0.3394E+01
      1.637  0.6286E+00  0.3464E+01
      1.749  0.7076E+00  0.3543E+01
      1.860  0.9061E+00  0.3644E+01
      1.972  0.6305E+00  0.3715E+01
      2.084  0.5507E+00  0.3777E+01
      2.196  0.6237E+00  0.3846E+01
      2.308  0.8948E+00  0.3946E+01
      2.420  0.7058E+00  0.4025E+01
      2.532  0.3755E+00  0.4067E+01
      2.644  0.4263E+00  0.4115E+01
      2.755  0.5051E+00  0.4172E+01
      2.867  0.4726E+00  0.4224E+01
      2.979  0.5566E+00  0.4287E+01
      3.091  0.4675E+00  0.4339E+01
      3.203  0.4057E+00  0.4384E+01
      3.315  0.4366E+00  0.4433E+01
      3.427  0.4047E+00  0.4479E+01
      3.539  0.4222E+00  0.4526E+01
      3.650  0.4574E+00  0.4577E+01
      3.762  0.5321E+00  0.4636E+01
      3.874  0.5737E+00  0.4701E+01
      3.986  0.4261E+00  0.4748E+01
      4.098  0.4467E+00  0.4798E+01
      4.210  0.5457E+00  0.4859E+01
      4.322  0.3821E+00  0.4902E+01
      4.434  0.3494E+00  0.4941E+01
      4.545  0.4172E+00  0.4988E+01
      4.657  0.4638E+00  0.5040E+01
      4.769  0.4456E+00  0.5090E+01
      4.881  0.3242E+00  0.5126E+01
      4.993  0.2958E+00  0.5159E+01
      5.105  0.2460E+00  0.5186E+01
      5.217  0.3219E+00  0.5223E+01
      5.328  0.2644E+00  0.5252E+01
      5.440  0.4263E+00  0.5300E+01
      5.552  0.4955E+00  0.5355E+01
      5.664  0.4226E+00  0.5402E+01
      5.776  0.4384E+00  0.5452E+01
      5.888  0.4334E+00  0.5500E+01
      6.000  0.3717E+00  0.5542E+01
      6.112  0.4213E+00  0.5589E+01
      6.223  0.4018E+00  0.5634E+01
      6.335  0.4465E+00  0.5684E+01
      6.447  0.5570E+00  0.5746E+01
      6.559  0.5488E+00  0.5807E+01
      6.671  0.3650E+00  0.5848E+01
      6.783  0.3616E+00  0.5889E+01
      6.895  0.4367E+00  0.5937E+01
      7.007  0.3753E+00  0.5979E+01
      7.118  0.2474E+00  0.6007E+01
      7.230  0.3397E+00  0.6045E+01
      7.342  0.3660E+00  0.6086E+01
      7.454  0.3575E+00  0.6126E+01
      7.566  0.3368E+00  0.6164E+01
      7.678  0.2721E+00  0.6194E+01
      7.790  0.4496E+00  0.6244E+01
      7.902  0.4123E+00  0.6291E+01
      8.013  0.4999E+00  0.6347E+01
      8.125  0.4074E+00  0.6392E+01
      8.237  0.3863E+00  0.6435E+01
      8.349  0.3610E+00  0.6476E+01
      8.461  0.3677E+00  0.6517E+01
      8.573  0.3999E+00  0.6562E+01
      8.685  0.2450E+00  0.6589E+01
      8.796  0.3533E+00  0.6629E+01
      8.908  0.2597E+00  0.6658E+01
      9.020  0.2434E+00  0.6685E+01
      9.132  0.3234E+00  0.6721E+01
      9.244  0.4367E+00  0.6770E+01
      9.356  0.3020E+00  0.6804E+01
      9.468  0.3187E+00  0.6839E+01
      9.580  0.5469E+00  0.6900E+01
      9.691  0.4827E+00  0.6954E+01
      9.803  0.6270E+00  0.7025E+01
      9.915  0.6804E+00  0.7101E+01
     10.027  0.4870E+00  0.7155E+01
     10.139  0.6421E+00  0.7227E+01
     10.251  0.5673E+00  0.7290E+01
     10.363  0.3948E+00  0.7335E+01
     10.475  0.1405E+00  0.7350E+01
     10.586  0.8591E-01  0.7360E+01
     10.698  0.1460E-02  0.7360E+01
     10.810 -0.1255E-02  0.7360E+01
     10.922 -0.1116E-04  0.7360E+01
     11.034 -0.6287E-08  0.7360E+01
     11.146 -0.2612E-12  0.7360E+01
     11.258  0.0000E+00  0.7360E+01
     11.370  0.0000E+00  0.7360E+01
     11.481  0.0000E+00  0.7360E+01
     11.593  0.0000E+00  0.7360E+01
     11.705  0.0000E+00  0.7360E+01
     11.817  0.0000E+00  0.7360E+01
     11.929  0.0000E+00  0.7360E+01
     12.041  0.0000E+00  0.7360E+01
