  144  144  100    1
  0.1416920E+02  0.8428300E-09  0.1459820E-08  0.1658321E-08  0.5000000E-15
  1.000000000000000E-004
  CAR 
 Al_Al2O3                                
    579      2    368
 
  0.0000000E+00  0.0000000E+00  0.0000000E+00  0.5000000E+00
    1      -19.995080   1.000000
    2      -15.528585   1.000000
    3      -15.261558   1.000000
    4      -15.213293   1.000000
    5      -14.867381   1.000000
    6      -14.738362   1.000000
    7      -14.711163   1.000000
    8      -14.619811   1.000000
    9      -14.552997   1.000000
   10      -14.492968   1.000000
   11      -14.395607   1.000000
   12      -14.285569   1.000000
   13      -14.190406   1.000000
   14      -14.135708   1.000000
   15      -14.127584   1.000000
   16      -14.090523   1.000000
   17      -13.933510   1.000000
   18      -13.924040   1.000000
   19      -13.873230   1.000000
   20      -13.858637   1.000000
   21      -13.832337   1.000000
   22      -13.748021   1.000000
   23      -13.719355   1.000000
   24      -13.696010   1.000000
   25      -13.673258   1.000000
   26      -13.637818   1.000000
   27      -13.546362   1.000000
   28      -13.529902   1.000000
   29      -13.329019   1.000000
   30      -13.312888   1.000000
   31      -13.283729   1.000000
   32      -13.186606   1.000000
   33      -13.118668   1.000000
   34      -12.997145   1.000000
   35      -12.881682   1.000000
   36      -12.787210   1.000000
   37      -12.768722   1.000000
   38      -12.763914   1.000000
   39      -12.754544   1.000000
   40      -12.525253   1.000000
   41      -12.252402   1.000000
   42      -11.291000   1.000000
   43      -10.798223   1.000000
   44      -10.541740   1.000000
   45       -9.993532   1.000000
   46       -9.746098   1.000000
   47       -9.731647   1.000000
   48       -9.349153   1.000000
   49       -8.425729   1.000000
   50       -4.357008   1.000000
   51       -3.685404   1.000000
   52       -3.672584   1.000000
   53       -3.301149   1.000000
   54       -3.101075   1.000000
   55       -3.055121   1.000000
   56       -2.978817   1.000000
   57       -2.911177   1.000000
   58       -2.863152   1.000000
   59       -2.824796   1.000000
   60       -2.739037   1.000000
   61       -2.502877   1.000000
   62       -2.473061   1.000000
   63       -2.465720   1.000000
   64       -2.420880   1.000000
   65       -2.394437   1.000000
   66       -2.361360   1.000000
   67       -2.321295   1.000000
   68       -2.281915   1.000000
   69       -2.231575   1.000000
   70       -2.200158   1.000000
   71       -2.196308   1.000000
   72       -2.173955   1.000000
   73       -2.141857   1.000000
   74       -2.135396   1.000000
   75       -2.101551   1.000000
   76       -2.090954   1.000000
   77       -2.000134   1.000000
   78       -1.969731   1.000000
   79       -1.902022   1.000000
   80       -1.830076   1.000000
   81       -1.795171   1.000000
   82       -1.719518   1.000000
   83       -1.697011   1.000000
   84       -1.681105   1.000000
   85       -1.658234   1.000000
   86       -1.626348   1.000000
   87       -1.609782   1.000000
   88       -1.565168   1.000000
   89       -1.554429   1.000000
   90       -1.526846   1.000000
   91       -1.523470   1.000000
   92       -1.493385   1.000000
   93       -1.486943   1.000000
   94       -1.373261   1.000000
   95       -1.301815   1.000000
   96       -1.271318   1.000000
   97       -1.217586   1.000000
   98       -1.174403   1.000000
   99       -1.134538   1.000000
  100       -1.044958   1.000000
  101       -1.004221   1.000000
  102       -0.938797   1.000000
  103       -0.903641   1.000000
  104       -0.847347   1.000000
  105       -0.763401   1.000000
  106       -0.713655   1.000000
  107       -0.696795   1.000000
  108       -0.649380   1.000000
  109       -0.619995   1.000000
  110       -0.554137   1.000000
  111       -0.538870   1.000000
  112       -0.524376   1.000000
  113       -0.441951   1.000000
  114       -0.384856   1.000000
  115       -0.301882   1.000000
  116       -0.285249   1.000000
  117       -0.277856   1.000000
  118       -0.246020   1.000000
  119       -0.196055   1.000000
  120       -0.177649   1.000000
  121       -0.102104   1.000000
  122       -0.080989   1.000000
  123       -0.022763   1.000000
  124       -0.006767   1.000000
  125        0.013779   1.000000
  126        0.090655   1.000000
  127        0.119083   1.000000
  128        0.167321   1.000000
  129        0.225857   1.000000
  130        0.249561   1.000000
  131        0.286028   1.000000
  132        0.295589   1.000000
  133        0.369830   1.000000
  134        0.414906   1.000000
  135        0.458050   1.000000
  136        0.475858   1.000000
  137        0.501591   1.000000
  138        0.522060   1.000000
  139        0.533260   1.000000
  140        0.605659   1.000000
  141        0.617381   1.000000
  142        0.711228   1.000000
  143        0.718043   1.000000
  144        0.786879   1.000000
  145        0.831660   1.000000
  146        0.855779   1.000000
  147        0.874590   1.000000
  148        0.899605   1.000000
  149        0.933613   1.000000
  150        0.989349   1.000000
  151        1.019313   1.000000
  152        1.037810   1.000000
  153        1.076411   1.000000
  154        1.101924   1.000000
  155        1.128945   1.000000
  156        1.154944   1.000000
  157        1.176806   1.000000
  158        1.191780   1.000000
  159        1.226730   1.000000
  160        1.239055   1.000000
  161        1.321070   1.000000
  162        1.326346   1.000000
  163        1.368810   1.000000
  164        1.385623   1.000000
  165        1.415395   1.000000
  166        1.449714   1.000000
  167        1.464231   1.000000
  168        1.482581   1.000000
  169        1.500698   1.000000
  170        1.545608   1.000000
  171        1.558764   1.000000
  172        1.587334   1.000000
  173        1.612249   1.000000
  174        1.634047   1.000000
  175        1.697824   1.000000
  176        1.713362   1.000000
  177        1.755194   1.000000
  178        1.764757   1.000000
  179        1.780873   1.000000
  180        1.783743   1.000000
  181        1.826503   1.000000
  182        1.835619   1.000000
  183        1.862754   1.000000
  184        1.863367   1.000000
  185        1.890588   1.000000
  186        1.902341   1.000000
  187        1.965779   1.000000
  188        1.997310   1.000000
  189        2.045969   1.000000
  190        2.074903   1.000000
  191        2.110717   1.000000
  192        2.132569   1.000000
  193        2.182206   1.000000
  194        2.219298   1.000000
  195        2.224094   1.000000
  196        2.235831   1.000000
  197        2.262093   1.000000
  198        2.315424   1.000000
  199        2.335564   1.000000
  200        2.356688   1.000000
  201        2.418907   1.000000
  202        2.437010   1.000000
  203        2.523999   1.000000
  204        2.539199   1.000000
  205        2.662965   1.000000
  206        2.701439   1.000000
  207        2.753517   1.000000
  208        2.763344   1.000000
  209        2.825135   1.000000
  210        2.923009   1.000000
  211        2.939552   1.000000
  212        2.992782   1.000000
  213        3.077741   1.000000
  214        3.099552   1.000000
  215        3.133709   1.000000
  216        3.180685   1.000000
  217        3.253754   1.000000
  218        3.327075   1.000000
  219        3.336097   1.000000
  220        3.382306   1.000000
  221        3.503285   1.000000
  222        3.507434   1.000000
  223        3.553538   1.000000
  224        3.565913   1.000000
  225        3.667361   1.000000
  226        3.681329   1.000000
  227        3.707613   1.000000
  228        3.730498   1.000000
  229        3.741438   1.000000
  230        3.766162   1.000000
  231        3.773753   1.000000
  232        3.815356   1.000000
  233        3.816558   1.000000
  234        3.849408   1.000000
  235        3.878119   1.000000
  236        3.938869   1.000000
  237        3.992309   1.000000
  238        4.048843   1.000000
  239        4.101425   1.000000
  240        4.135656   1.000000
  241        4.176709   1.000000
  242        4.245231   1.000000
  243        4.369614   1.000000
  244        4.377124   1.000000
  245        4.431802   1.000000
  246        4.462108   1.000000
  247        4.508116   1.000000
  248        4.515343   1.000000
  249        4.563577   1.000000
  250        4.575249   1.000000
  251        4.593250   1.000000
  252        4.642344   1.000000
  253        4.692891   1.000000
  254        4.715687   1.000000
  255        4.737766   1.000000
  256        4.796115   1.000000
  257        4.865445   1.000000
  258        4.934178   1.000000
  259        5.036887   1.000000
  260        5.088155   1.000000
  261        5.168709   1.000000
  262        5.175474   1.000000
  263        5.204093   1.000000
  264        5.300728   1.000000
  265        5.324814   1.000000
  266        5.413272   1.000000
  267        5.457108   1.000000
  268        5.501937   1.000000
  269        5.541393   1.000000
  270        5.588757   1.000000
  271        5.676272   1.000000
  272        5.702548   1.000000
  273        5.743352   1.000000
  274        5.752940   1.000000
  275        5.800287   1.000000
  276        5.826365   1.000000
  277        5.844322   1.000000
  278        5.915875   1.000000
  279        5.925734   1.000000
  280        6.030708   1.000000
  281        6.070741   1.000000
  282        6.159893   1.000002
  283        6.207740   1.000041
  284        6.276619   1.001428
  285        6.309182   1.005195
  286        6.330502   1.010461
  287        6.371797   1.027620
  288        6.384336   1.032636
  289        6.417680   1.028944
  290        6.458047   0.936420
  291        6.481050   0.815580
  292        6.515907   0.550333
  293        6.561293   0.193360
  294        6.647895  -0.035273
  295        6.688246  -0.020150
  296        6.809698  -0.000181
  297        6.839255  -0.000034
  298        6.930124  -0.000000
  299        6.967276  -0.000000
  300        7.038046  -0.000000
  301        7.161795  -0.000000
  302        7.194996  -0.000000
  303        7.246489  -0.000000
  304        7.337736  -0.000000
  305        7.412389  -0.000000
  306        7.452342  -0.000000
  307        7.504330  -0.000000
  308        7.527317  -0.000000
  309        7.609508  -0.000000
  310        7.675948  -0.000000
  311        7.685294  -0.000000
  312        7.723184  -0.000000
  313        7.758593  -0.000000
  314        7.777231  -0.000000
  315        7.824837  -0.000000
  316        7.838907  -0.000000
  317        7.894371  -0.000000
  318        7.926094  -0.000000
  319        7.945724  -0.000000
  320        7.967641  -0.000000
  321        7.996511  -0.000000
  322        8.068578  -0.000000
  323        8.130143  -0.000000
  324        8.240161  -0.000000
  325        8.300473  -0.000000
  326        8.422839  -0.000000
  327        8.447269  -0.000000
  328        8.457944  -0.000000
  329        8.518966  -0.000000
  330        8.538440  -0.000000
  331        8.610298  -0.000000
  332        8.714892  -0.000000
  333        8.749091  -0.000000
  334        8.912596  -0.000000
  335        8.959066  -0.000000
  336        9.053415  -0.000000
  337        9.113675  -0.000000
  338        9.136581  -0.000000
  339        9.278629   0.000000
  340        9.343829   0.000000
  341        9.412396   0.000000
  342        9.436302   0.000000
  343        9.479885   0.000000
  344        9.529870   0.000000
  345        9.552018   0.000000
  346        9.570509   0.000000
  347        9.614246   0.000000
  348        9.642860   0.000000
  349        9.678913   0.000000
  350        9.696729   0.000000
  351        9.741770   0.000000
  352        9.744491   0.000000
  353        9.773512   0.000000
  354        9.790329   0.000000
  355        9.805140   0.000000
  356        9.841192   0.000000
  357        9.857140   0.000000
  358        9.880576   0.000000
  359        9.884283   0.000000
  360        9.918796   0.000000
  361        9.986716   0.000000
  362       10.029920   0.000000
  363       10.110560   0.000000
  364       10.150026   0.000000
  365       10.169960   0.000000
  366       10.225269   0.000000
  367       10.278577   0.000000
  368       10.299574   0.000000
 
  0.5000000E+00  0.0000000E+00  0.0000000E+00  0.5000000E+00
    1      -19.995021   1.000000
    2      -15.369301   1.000000
    3      -15.252777   1.000000
    4      -15.116097   1.000000
    5      -15.056321   1.000000
    6      -14.998581   1.000000
    7      -14.961073   1.000000
    8      -14.554265   1.000000
    9      -14.456143   1.000000
   10      -14.372643   1.000000
   11      -14.326788   1.000000
   12      -14.264135   1.000000
   13      -14.158984   1.000000
   14      -14.116474   1.000000
   15      -14.000994   1.000000
   16      -13.952025   1.000000
   17      -13.928029   1.000000
   18      -13.904409   1.000000
   19      -13.887750   1.000000
   20      -13.870413   1.000000
   21      -13.847565   1.000000
   22      -13.813052   1.000000
   23      -13.794807   1.000000
   24      -13.770964   1.000000
   25      -13.754135   1.000000
   26      -13.682752   1.000000
   27      -13.581789   1.000000
   28      -13.426854   1.000000
   29      -13.328609   1.000000
   30      -13.307280   1.000000
   31      -13.240896   1.000000
   32      -13.183524   1.000000
   33      -13.098400   1.000000
   34      -12.968875   1.000000
   35      -12.870416   1.000000
   36      -12.820717   1.000000
   37      -12.772179   1.000000
   38      -12.768779   1.000000
   39      -12.764913   1.000000
   40      -12.527506   1.000000
   41      -12.253335   1.000000
   42      -11.290808   1.000000
   43      -10.799731   1.000000
   44      -10.540976   1.000000
   45       -9.995144   1.000000
   46       -9.747452   1.000000
   47       -9.733950   1.000000
   48       -9.348877   1.000000
   49       -8.425601   1.000000
   50       -3.861247   1.000000
   51       -3.833846   1.000000
   52       -3.212824   1.000000
   53       -3.197705   1.000000
   54       -3.181236   1.000000
   55       -3.170946   1.000000
   56       -3.094397   1.000000
   57       -3.055803   1.000000
   58       -3.007130   1.000000
   59       -2.965933   1.000000
   60       -2.956079   1.000000
   61       -2.937259   1.000000
   62       -2.913298   1.000000
   63       -2.851733   1.000000
   64       -2.760639   1.000000
   65       -2.554518   1.000000
   66       -2.537661   1.000000
   67       -2.463136   1.000000
   68       -2.446290   1.000000
   69       -2.382790   1.000000
   70       -2.370496   1.000000
   71       -2.328329   1.000000
   72       -2.308533   1.000000
   73       -2.267229   1.000000
   74       -2.226458   1.000000
   75       -2.191174   1.000000
   76       -2.128924   1.000000
   77       -1.941852   1.000000
   78       -1.895092   1.000000
   79       -1.863156   1.000000
   80       -1.781753   1.000000
   81       -1.749763   1.000000
   82       -1.738265   1.000000
   83       -1.650640   1.000000
   84       -1.608936   1.000000
   85       -1.600813   1.000000
   86       -1.554175   1.000000
   87       -1.495143   1.000000
   88       -1.474900   1.000000
   89       -1.433070   1.000000
   90       -1.363738   1.000000
   91       -1.285113   1.000000
   92       -1.233544   1.000000
   93       -1.218478   1.000000
   94       -1.180529   1.000000
   95       -1.166626   1.000000
   96       -1.137950   1.000000
   97       -1.129817   1.000000
   98       -1.081807   1.000000
   99       -1.057983   1.000000
  100       -1.025953   1.000000
  101       -1.003456   1.000000
  102       -0.998589   1.000000
  103       -0.920641   1.000000
  104       -0.864668   1.000000
  105       -0.818557   1.000000
  106       -0.715206   1.000000
  107       -0.638352   1.000000
  108       -0.495967   1.000000
  109       -0.457672   1.000000
  110       -0.399815   1.000000
  111       -0.357029   1.000000
  112       -0.306890   1.000000
  113       -0.276459   1.000000
  114       -0.229538   1.000000
  115       -0.165385   1.000000
  116       -0.117998   1.000000
  117       -0.105476   1.000000
  118       -0.037815   1.000000
  119        0.006876   1.000000
  120        0.019552   1.000000
  121        0.077314   1.000000
  122        0.128826   1.000000
  123        0.170007   1.000000
  124        0.187987   1.000000
  125        0.254907   1.000000
  126        0.279224   1.000000
  127        0.287640   1.000000
  128        0.364198   1.000000
  129        0.373576   1.000000
  130        0.382848   1.000000
  131        0.394966   1.000000
  132        0.455486   1.000000
  133        0.482376   1.000000
  134        0.502859   1.000000
  135        0.538315   1.000000
  136        0.572857   1.000000
  137        0.588506   1.000000
  138        0.622167   1.000000
  139        0.634206   1.000000
  140        0.682004   1.000000
  141        0.752231   1.000000
  142        0.758044   1.000000
  143        0.770999   1.000000
  144        0.786769   1.000000
  145        0.806209   1.000000
  146        0.843481   1.000000
  147        0.864756   1.000000
  148        0.884864   1.000000
  149        0.930291   1.000000
  150        0.933127   1.000000
  151        0.955919   1.000000
  152        0.975251   1.000000
  153        0.989238   1.000000
  154        1.032114   1.000000
  155        1.056702   1.000000
  156        1.102770   1.000000
  157        1.107600   1.000000
  158        1.153939   1.000000
  159        1.165824   1.000000
  160        1.192575   1.000000
  161        1.208664   1.000000
  162        1.242517   1.000000
  163        1.309753   1.000000
  164        1.323768   1.000000
  165        1.354623   1.000000
  166        1.389530   1.000000
  167        1.410914   1.000000
  168        1.443776   1.000000
  169        1.446770   1.000000
  170        1.500976   1.000000
  171        1.532590   1.000000
  172        1.576990   1.000000
  173        1.602730   1.000000
  174        1.628028   1.000000
  175        1.704770   1.000000
  176        1.720665   1.000000
  177        1.729076   1.000000
  178        1.747782   1.000000
  179        1.754852   1.000000
  180        1.795648   1.000000
  181        1.817716   1.000000
  182        1.848442   1.000000
  183        1.913780   1.000000
  184        1.934617   1.000000
  185        1.962110   1.000000
  186        2.012682   1.000000
  187        2.025661   1.000000
  188        2.068315   1.000000
  189        2.105877   1.000000
  190        2.139587   1.000000
  191        2.166787   1.000000
  192        2.199997   1.000000
  193        2.241152   1.000000
  194        2.258803   1.000000
  195        2.272785   1.000000
  196        2.288271   1.000000
  197        2.294364   1.000000
  198        2.312453   1.000000
  199        2.332146   1.000000
  200        2.342622   1.000000
  201        2.367902   1.000000
  202        2.402234   1.000000
  203        2.472280   1.000000
  204        2.524025   1.000000
  205        2.583964   1.000000
  206        2.595987   1.000000
  207        2.603056   1.000000
  208        2.649658   1.000000
  209        2.700719   1.000000
  210        2.741470   1.000000
  211        2.749887   1.000000
  212        2.792317   1.000000
  213        2.832129   1.000000
  214        2.881774   1.000000
  215        2.898085   1.000000
  216        2.938332   1.000000
  217        2.948314   1.000000
  218        2.966912   1.000000
  219        2.988923   1.000000
  220        3.047747   1.000000
  221        3.078350   1.000000
  222        3.133297   1.000000
  223        3.219440   1.000000
  224        3.228717   1.000000
  225        3.277317   1.000000
  226        3.281362   1.000000
  227        3.379273   1.000000
  228        3.403489   1.000000
  229        3.431146   1.000000
  230        3.511332   1.000000
  231        3.542388   1.000000
  232        3.569418   1.000000
  233        3.637605   1.000000
  234        3.661584   1.000000
  235        3.789444   1.000000
  236        3.867782   1.000000
  237        3.901656   1.000000
  238        3.921528   1.000000
  239        4.002939   1.000000
  240        4.025078   1.000000
  241        4.088429   1.000000
  242        4.105460   1.000000
  243        4.117750   1.000000
  244        4.184814   1.000000
  245        4.204177   1.000000
  246        4.234420   1.000000
  247        4.236670   1.000000
  248        4.273181   1.000000
  249        4.378008   1.000000
  250        4.413683   1.000000
  251        4.560443   1.000000
  252        4.596879   1.000000
  253        4.703552   1.000000
  254        4.743191   1.000000
  255        4.776676   1.000000
  256        4.891741   1.000000
  257        4.905186   1.000000
  258        4.953319   1.000000
  259        5.073435   1.000000
  260        5.143852   1.000000
  261        5.296297   1.000000
  262        5.369575   1.000000
  263        5.394357   1.000000
  264        5.426268   1.000000
  265        5.464371   1.000000
  266        5.488784   1.000000
  267        5.553192   1.000000
  268        5.564983   1.000000
  269        5.622612   1.000000
  270        5.661891   1.000000
  271        5.689421   1.000000
  272        5.807232   1.000000
  273        5.868248   1.000000
  274        5.933853   1.000000
  275        5.996116   1.000000
  276        6.025641   1.000000
  277        6.051068   1.000000
  278        6.085147   1.000000
  279        6.132283   1.000000
  280        6.193156   1.000017
  281        6.209663   1.000046
  282        6.244238   1.000309
  283        6.300395   1.003761
  284        6.396074   1.035296
  285        6.415247   1.030703
  286        6.459397   0.930790
  287        6.492001   0.740678
  288        6.515928   0.550159
  289        6.555051   0.235578
  290        6.620127  -0.023227
  291        6.658912  -0.032796
  292        6.714517  -0.010063
  293        6.724956  -0.007226
  294        6.804622  -0.000237
  295        6.812514  -0.000156
  296        6.853280  -0.000014
  297        6.891854  -0.000001
  298        6.923428  -0.000000
  299        6.979872  -0.000000
  300        7.049447  -0.000000
  301        7.107612  -0.000000
  302        7.203493  -0.000000
  303        7.216746  -0.000000
  304        7.279069  -0.000000
  305        7.322269  -0.000000
  306        7.360673  -0.000000
  307        7.407968  -0.000000
  308        7.489581  -0.000000
  309        7.559173  -0.000000
  310        7.691895  -0.000000
  311        7.772043  -0.000000
  312        7.830957  -0.000000
  313        7.952135  -0.000000
  314        8.006080  -0.000000
  315        8.028110  -0.000000
  316        8.044658  -0.000000
  317        8.100956  -0.000000
  318        8.186930  -0.000000
  319        8.193656  -0.000000
  320        8.214355  -0.000000
  321        8.239087  -0.000000
  322        8.294041  -0.000000
  323        8.337779  -0.000000
  324        8.393112  -0.000000
  325        8.445485  -0.000000
  326        8.530190  -0.000000
  327        8.580826  -0.000000
  328        8.697245  -0.000000
  329        8.729509  -0.000000
  330        8.769893  -0.000000
  331        8.816207  -0.000000
  332        8.863374  -0.000000
  333        8.931774  -0.000000
  334        9.032642  -0.000000
  335        9.117200  -0.000000
  336        9.167651  -0.000000
  337        9.181508  -0.000000
  338        9.195923  -0.000000
  339        9.228486  -0.000000
  340        9.267705   0.000000
  341        9.328781   0.000000
  342        9.465652   0.000000
  343        9.484509   0.000000
  344        9.554318   0.000000
  345        9.581137   0.000000
  346        9.588117   0.000000
  347        9.716741   0.000000
  348        9.776065   0.000000
  349        9.799024   0.000000
  350        9.845091   0.000000
  351        9.887443   0.000000
  352        9.927546   0.000000
  353        9.980491   0.000000
  354       10.024231   0.000000
  355       10.046712   0.000000
  356       10.055268   0.000000
  357       10.064372   0.000000
  358       10.103706   0.000000
  359       10.125534   0.000000
  360       10.130895   0.000000
  361       10.163326   0.000000
  362       10.198330   0.000000
  363       10.245968   0.000000
  364       10.288632   0.000000
  365       10.296933   0.000000
  366       10.361397   0.000000
  367       10.442020   0.000000
  368       10.515239   0.000000
