       N       E                     dE             d eps       ncg     rms          rms(c)
DAV:   1     0.257190150094E+04    0.25719E+04   -0.21783E+05  1472   0.111E+03
DAV:   2    -0.468424842732E+03   -0.30403E+04   -0.28599E+04  1920   0.240E+02
DAV:   3    -0.828335492029E+03   -0.35991E+03   -0.35513E+03  1712   0.887E+01
DAV:   4    -0.837131831833E+03   -0.87963E+01   -0.87210E+01  1728   0.144E+01
DAV:   5    -0.837405815152E+03   -0.27398E+00   -0.27357E+00  1888   0.231E+00    0.525E+01
RMM:   6    -0.764093200962E+03    0.73313E+02   -0.39418E+02  1490   0.249E+01    0.377E+01
RMM:   7    -0.775510496719E+03   -0.11417E+02   -0.82631E+01  1517   0.987E+00    0.228E+01
RMM:   8    -0.759795231684E+03    0.15715E+02   -0.72641E+00  1482   0.288E+00    0.162E+01
RMM:   9    -0.755061844637E+03    0.47334E+01   -0.66330E+00  1509   0.244E+00    0.103E+01
RMM:  10    -0.757551535863E+03   -0.24897E+01   -0.90204E+00  1483   0.265E+00    0.262E+01
RMM:  11    -0.754418115313E+03    0.31334E+01   -0.23208E+00  1487   0.144E+00    0.186E+01
RMM:  12    -0.752404920031E+03    0.20132E+01   -0.26194E+00  1486   0.143E+00    0.381E+00
RMM:  13    -0.752603977097E+03   -0.19906E+00   -0.71525E-01  1513   0.838E-01    0.474E+00
RMM:  14    -0.752400278229E+03    0.20370E+00   -0.13775E-01  1479   0.431E-01    0.357E+00
RMM:  15    -0.752250778204E+03    0.14950E+00   -0.10220E-01  1472   0.315E-01    0.221E+00
RMM:  16    -0.752225396440E+03    0.25382E-01   -0.16278E-02  1219   0.146E-01    0.189E+00
RMM:  17    -0.752220971086E+03    0.44254E-02   -0.64544E-03  1044   0.729E-02    0.210E+00
RMM:  18    -0.752202909731E+03    0.18061E-01   -0.11781E-02  1118   0.111E-01    0.152E+00
RMM:  19    -0.752186160330E+03    0.16749E-01   -0.27131E-02  1377   0.184E-01    0.737E-01
RMM:  20    -0.752183885630E+03    0.22747E-02   -0.11752E-02  1133   0.104E-01    0.414E-01
RMM:  21    -0.752183367188E+03    0.51844E-03   -0.16930E-03   880   0.447E-02
   1 F= -.75218337E+03 E0= -.75218384E+03  d E =-.752183E+03
       N       E                     dE             d eps       ncg     rms          rms(c)
DAV:   1    -0.753948550112E+03   -0.17647E+01   -0.44168E+01  1504   0.103E+01    0.176E+00
RMM:   2    -0.754052475667E+03   -0.10393E+00   -0.16272E+00  1468   0.157E+00    0.197E+00
RMM:   3    -0.754049746232E+03    0.27294E-02   -0.12748E-01  1434   0.359E-01    0.298E+00
RMM:   4    -0.753993007000E+03    0.56739E-01   -0.44168E-02  1386   0.228E-01    0.121E+00
RMM:   5    -0.753990566521E+03    0.24405E-02   -0.26450E-02  1373   0.183E-01    0.821E-01
RMM:   6    -0.753987641207E+03    0.29253E-02   -0.15658E-02  1258   0.130E-01    0.604E-01
RMM:   7    -0.753986184596E+03    0.14566E-02   -0.85949E-03  1033   0.860E-02    0.403E-01
RMM:   8    -0.753985101149E+03    0.10834E-02   -0.25576E-03   944   0.543E-02    0.146E-01
RMM:   9    -0.753985083502E+03    0.17647E-04   -0.59166E-04   751   0.293E-02
   2 F= -.75398508E+03 E0= -.75398606E+03  d E =-.180172E+01
       N       E                     dE             d eps       ncg     rms          rms(c)
DAV:   1    -0.755570553609E+03   -0.15855E+01   -0.14584E+02  1488   0.190E+01    0.320E+00
RMM:   2    -0.756125712301E+03   -0.55516E+00   -0.63552E+00  1494   0.311E+00    0.507E+00
RMM:   3    -0.756054796308E+03    0.70916E-01   -0.53976E-01  1485   0.702E-01    0.457E+00
RMM:   4    -0.755849074967E+03    0.20572E+00   -0.13872E-01  1467   0.445E-01    0.169E+00
RMM:   5    -0.755832698995E+03    0.16376E-01   -0.83947E-02  1442   0.305E-01    0.116E+00
RMM:   6    -0.755829957343E+03    0.27417E-02   -0.44587E-02  1433   0.256E-01    0.852E-01
RMM:   7    -0.755827715789E+03    0.22416E-02   -0.18798E-02  1328   0.147E-01    0.825E-01
RMM:   8    -0.755824227183E+03    0.34886E-02   -0.79959E-03  1108   0.919E-02    0.323E-01
RMM:   9    -0.755824237771E+03   -0.10588E-04   -0.24483E-03   912   0.540E-02
   3 F= -.75582424E+03 E0= -.75582136E+03  d E =-.364087E+01
       N       E                     dE             d eps       ncg     rms          rms(c)
DAV:   1    -0.746180825795E+03    0.96434E+01   -0.56083E+02  1504   0.376E+01    0.704E+00
RMM:   2    -0.749644222152E+03   -0.34634E+01   -0.38102E+01  1493   0.751E+00    0.106E+01
RMM:   3    -0.749019601090E+03    0.62462E+00   -0.21295E+00  1545   0.144E+00    0.756E+00
RMM:   4    -0.748320237145E+03    0.69936E+00   -0.61571E-01  1488   0.872E-01    0.402E+00
RMM:   5    -0.748357190530E+03   -0.36953E-01   -0.92956E-01  1486   0.989E-01    0.528E+00
RMM:   6    -0.748172096371E+03    0.18509E+00   -0.29059E-01  1460   0.583E-01    0.241E+00
RMM:   7    -0.748146158659E+03    0.25938E-01   -0.10443E-01  1420   0.346E-01    0.111E+00
RMM:   8    -0.748137098425E+03    0.90602E-02   -0.35217E-02  1393   0.197E-01    0.106E+00
RMM:   9    -0.748129987558E+03    0.71109E-02   -0.11211E-02  1152   0.108E-01    0.388E-01
RMM:  10    -0.748129914629E+03    0.72929E-04   -0.72563E-03  1082   0.893E-02
   4 F= -.74812991E+03 E0= -.74813234E+03  d E =0.405345E+01
       N       E                     dE             d eps       ncg     rms          rms(c)
DAV:   1    -0.754547522367E+03   -0.64175E+01   -0.48226E+02  1480   0.337E+01    0.728E+00
RMM:   2    -0.756881986776E+03   -0.23345E+01   -0.31261E+01  1479   0.666E+00    0.732E+00
RMM:   3    -0.756442494160E+03    0.43949E+00   -0.14936E+00  1495   0.137E+00    0.713E+00
RMM:   4    -0.756186570870E+03    0.25592E+00   -0.60513E-01  1486   0.812E-01    0.467E+00
RMM:   5    -0.756040970164E+03    0.14560E+00   -0.51260E-01  1482   0.813E-01    0.314E+00
RMM:   6    -0.755996983315E+03    0.43987E-01   -0.20417E-01  1469   0.515E-01    0.215E+00
RMM:   7    -0.755969283053E+03    0.27700E-01   -0.93485E-02  1416   0.317E-01    0.119E+00
RMM:   8    -0.755963311126E+03    0.59719E-02   -0.34578E-02  1382   0.187E-01    0.943E-01
RMM:   9    -0.755957123165E+03    0.61880E-02   -0.15397E-02  1122   0.113E-01    0.345E-01
RMM:  10    -0.755956959934E+03    0.16323E-03   -0.27289E-03   959   0.581E-02
   5 F= -.75595696E+03 E0= -.75595379E+03  d E =-.377359E+01
