 vasp.5.4.1 05Feb16 (build Feb 01 2017 11:31:40) complex                        
  
 executed on           IFC91_ompi date 2021.07.07  11:22:25
 running on   32 total cores
 distrk:  each k-point on   32 cores,    1 groups
 distr:  one band on NCORES_PER_BAND=   4 cores,    8 groups


--------------------------------------------------------------------------------------------------------


 INCAR:
 POTCAR:    PAW_PBE Al 04Jan2001                  
 POTCAR:    PAW_PBE O 08Apr2002                   
 POTCAR:    PAW_PBE Al 04Jan2001                  
   VRHFIN =Al: s2p1                                                             
   LEXCH  = PE                                                                  
   EATOM  =    53.5387 eV,    3.9350 Ry                                         
                                                                                
   TITEL  = PAW_PBE Al 04Jan2001                                                
   LULTRA =        F    use ultrasoft PP ?                                      
   IUNSCR =        1    unscreen: 0-lin 1-nonlin 2-no                           
   RPACOR =    1.500    partial core radius                                     
   POMASS =   26.981; ZVAL   =    3.000    mass and valenz                      
   RCORE  =    1.900    outmost cutoff radius                                   
   RWIGS  =    2.650; RWIGS  =    1.402    wigner-seitz radius (au A)           
   ENMAX  =  240.300; ENMIN  =  180.225 eV                                      
   ICORE  =        2    local potential                                         
   LCOR   =        T    correct aug charges                                     
   LPAW   =        T    paw PP                                                  
   EAUG   =  291.052                                                            
   DEXC   =    0.000                                                            
   RMAX   =    1.939    core radius for proj-oper                               
   RAUG   =    1.300    factor for augmentation sphere                          
   RDEP   =    1.966    radius for radial grids                                 
   RDEPT  =    1.856    core radius for aug-charge                              
                                                                                
   Atomic configuration                                                         
    6 entries                                                                   
     n  l   j            E        occ.                                          
     1  0  0.50     -1511.1048   2.0000                                         
     2  0  0.50      -108.1629   2.0000                                         
     2  1  1.50       -69.6402   6.0000                                         
     3  0  0.50        -7.7528   2.0000                                         
     3  1  1.50        -2.7121   1.0000                                         
     3  2  2.50        -2.7212   0.0000                                         
   Description                                                                  
     l       E           TYP  RCUT    TYP  RCUT                                 
     0     -7.7528455     23  1.900                                             
     0     -3.3096929     23  1.900                                             
     1     -2.7120682     23  1.900                                             
     1     13.6058260     23  1.900                                             
     2     -2.7211652      7  1.900                                             
  local pseudopotential read in
  partial core-charges read in
  partial kinetic energy density read in
  atomic valenz-charges read in
  non local Contribution for L=           0  read in
    real space projection operators read in
  non local Contribution for L=           0  read in
    real space projection operators read in
  non local Contribution for L=           1  read in
    real space projection operators read in
  non local Contribution for L=           1  read in
    real space projection operators read in
    PAW grid and wavefunctions read in
 
   number of l-projection  operators is LMAX  =           4
   number of lm-projection operators is LMMAX =           8
 
 POTCAR:    PAW_PBE O 08Apr2002                   
   VRHFIN =O: s2p4                                                              
   LEXCH  = PE                                                                  
   EATOM  =   432.3788 eV,   31.7789 Ry                                         
                                                                                
   TITEL  = PAW_PBE O 08Apr2002                                                 
   LULTRA =        F    use ultrasoft PP ?                                      
   IUNSCR =        1    unscreen: 0-lin 1-nonlin 2-no                           
   RPACOR =    1.200    partial core radius                                     
   POMASS =   16.000; ZVAL   =    6.000    mass and valenz                      
   RCORE  =    1.520    outmost cutoff radius                                   
   RWIGS  =    1.550; RWIGS  =    0.820    wigner-seitz radius (au A)           
   ENMAX  =  400.000; ENMIN  =  300.000 eV                                      
   ICORE  =        2    local potential                                         
   LCOR   =        T    correct aug charges                                     
   LPAW   =        T    paw PP                                                  
   EAUG   =  605.392                                                            
   DEXC   =    0.000                                                            
   RMAX   =    1.553    core radius for proj-oper                               
   RAUG   =    1.300    factor for augmentation sphere                          
   RDEP   =    1.550    radius for radial grids                                 
   RDEPT  =    1.329    core radius for aug-charge                              
                                                                                
   Atomic configuration                                                         
    4 entries                                                                   
     n  l   j            E        occ.                                          
     1  0  0.50      -514.6923   2.0000                                         
     2  0  0.50       -23.9615   2.0000                                         
     2  1  0.50        -9.0305   4.0000                                         
     3  2  1.50        -9.5241   0.0000                                         
   Description                                                                  
     l       E           TYP  RCUT    TYP  RCUT                                 
     0    -23.9615318     23  1.200                                             
     0     -9.5240782     23  1.200                                             
     1     -9.0304911     23  1.520                                             
     1      8.1634956     23  1.520                                             
     2     -9.5240782      7  1.500                                             
  local pseudopotential read in
  partial core-charges read in
  partial kinetic energy density read in
  kinetic energy density of atom read in
  atomic valenz-charges read in
  non local Contribution for L=           0  read in
    real space projection operators read in
  non local Contribution for L=           0  read in
    real space projection operators read in
  non local Contribution for L=           1  read in
    real space projection operators read in
  non local Contribution for L=           1  read in
    real space projection operators read in
    PAW grid and wavefunctions read in
 
   number of l-projection  operators is LMAX  =           4
   number of lm-projection operators is LMMAX =           8
 
 Optimization of the real space projectors (new method)

 maximal supplied QI-value         = 19.84
 optimisation between [QCUT,QGAM] = [ 10.12, 20.44] = [ 28.68,116.96] Ry 
 Optimized for a Real-space Cutoff    1.38 Angstroem

   l    n(q)    QCUT    max X(q) W(low)/X(q) W(high)/X(q)  e(spline) 
   0      8    10.119   176.870    0.39E-04    0.93E-04    0.54E-07
   0      8    10.119   105.762    0.37E-04    0.91E-04    0.53E-07
   1      8    10.119    55.370    0.18E-03    0.13E-03    0.19E-06
   1      8    10.119    20.208    0.17E-03    0.12E-03    0.18E-06
 Optimization of the real space projectors (new method)

 maximal supplied QI-value         = 24.76
 optimisation between [QCUT,QGAM] = [ 10.15, 20.30] = [ 28.85,115.39] Ry 
 Optimized for a Real-space Cutoff    1.51 Angstroem

   l    n(q)    QCUT    max X(q) W(low)/X(q) W(high)/X(q)  e(spline) 
   0      9    10.150    20.381    0.17E-03    0.18E-03    0.41E-06
   0      9    10.150    15.268    0.18E-03    0.20E-03    0.43E-06
   1      9    10.150     5.964    0.16E-03    0.20E-03    0.36E-06
   1      9    10.150     5.382    0.13E-03    0.16E-03    0.33E-06
  PAW_PBE Al 04Jan2001                  :
 energy of atom  1       EATOM=  -53.5387
 kinetic energy error for atom=    0.0005 (will be added to EATOM!!)
  PAW_PBE O 08Apr2002                   :
 energy of atom  2       EATOM= -432.3788
 kinetic energy error for atom=    0.1156 (will be added to EATOM!!)
 
 
 POSCAR: Al95 O49                                
  positions in direct lattice
  No initial velocities read in
 exchange correlation table for  LEXCH =        8
   RHO(1)=    0.500       N(1)  =     2000
   RHO(2)=  100.500       N(2)  =     4000
 


--------------------------------------------------------------------------------------------------------


 ion  position               nearest neighbor table
   1  0.833  0.678  0.789-   2 2.81   4 2.81   3 2.81   5 2.81  93 2.81  92 2.81  52 2.84  67 2.84
                            58 2.84  74 2.84  79 2.84  64 2.84
   2  0.000  0.844  0.790-   1 2.81   3 2.81   4 2.81   6 2.81  84 2.81  85 2.81  68 2.84  59 2.84
                            79 2.84  73 2.84  62 2.84  52 2.84
   3  0.167  0.678  0.789-   2 2.81   6 2.81   1 2.81   5 2.81  93 2.81  95 2.81  52 2.84  66 2.84
                            67 2.84  80 2.84  73 2.84  57 2.84
   4  0.667  0.844  0.790-   1 2.81   5 2.81   2 2.81   6 2.81  84 2.81  83 2.81  68 2.84  53 2.84
                            79 2.84  65 2.84  72 2.84  58 2.84
   5  0.500  0.678  0.789-   6 2.81   4 2.81   1 2.81   3 2.81  95 2.81  92 2.81  66 2.84  58 2.84
                            80 2.84  74 2.84  65 2.84  51 2.84
   6  0.333  0.844  0.790-   5 2.81   3 2.81   4 2.81   2 2.81  83 2.81  85 2.81  53 2.84  59 2.84
                            65 2.84  73 2.84  78 2.84  66 2.84
   7  0.680  0.833  0.087-  96 1.89  97 1.89  98 1.89  46 2.85  41 2.85  45 2.85  79 2.97  65 3.08
                            72 3.13  10 3.28   8 3.28  17 3.28
   8  0.014  0.833  0.189-  99 1.89  97 1.89 112 1.89 129 2.00 130 2.00 131 2.00  26 2.29  39 2.85
                            37 2.85  36 2.85   9 3.28   7 3.28  16 3.28
   9  0.180  0.000  0.087- 100 1.89  99 1.89 101 1.89  41 2.85  46 2.85  42 2.85  78 2.96  62 3.07
                            77 3.18   8 3.28  14 3.28  10 3.28
  10  0.514  0.000  0.189- 101 1.89 104 1.89  96 1.89 123 2.00 124 2.00 125 2.00  24 2.29  37 2.85
                            38 2.85  39 2.85   7 3.28  11 3.28   9 3.28
  11  0.680  0.167  0.087- 102 1.89 103 1.89 104 1.89  44 2.85  42 2.85  46 2.85  86 3.01  71 3.12
                            76 3.17  13 3.28  14 3.28  10 3.28
  12  0.180  0.333  0.087- 105 1.89 106 1.89 107 1.89  44 2.85  42 2.85  43 2.85  82 3.00  70 3.11
                            75 3.16  14 3.28  18 3.28  13 3.28
  13  0.514  0.333  0.189- 107 1.89 102 1.89 110 1.89 126 2.00 127 2.00 128 2.00  25 2.29  38 2.85
                            22 2.85  20 2.85  11 3.28  15 3.28  12 3.28
  14  0.014  0.167  0.189- 105 1.89 103 1.89 100 1.89 114 2.00 115 2.00 116 2.00  19 2.29  20 2.85
                            39 2.85  38 2.85  12 3.28   9 3.28  11 3.28
  15  0.680  0.500  0.087- 108 1.89 109 1.89 110 1.89  43 2.85  45 2.85  44 2.85  81 2.99  69 3.10
                            74 3.15  17 3.28  18 3.28  13 3.28
  16  0.180  0.667  0.087- 111 1.89 112 1.89 113 1.89  45 2.85  43 2.85  41 2.85  80 2.98  67 3.09
                            73 3.14  18 3.28  17 3.28   8 3.28
  17  0.514  0.667  0.189- 113 1.89 108 1.89  98 1.89 117 2.00 118 2.00 119 2.00  21 2.29  22 2.85
                            36 2.85  37 2.85  15 3.28  16 3.28   7 3.28
  18  0.014  0.500  0.189- 111 1.89 109 1.89 106 1.89 120 2.00 121 2.00 122 2.00  23 2.29  20 2.85
                            36 2.85  22 2.85  16 3.28  12 3.28  15 3.28
  19  0.014  0.167  0.327- 114 1.77 115 1.77 116 1.77 141 2.14  14 2.29  40 2.85  47 2.85  34 2.85
                            20 3.34  39 3.34  38 3.34
  20  0.847  0.333  0.218- 114 1.89 120 1.89 128 1.89 105 2.00 109 2.00 102 2.00  40 2.29  44 2.67
                            14 2.85  18 2.85  13 2.85  19 3.34  23 3.34  25 3.34
  21  0.514  0.667  0.327- 117 1.77 118 1.77 119 1.77  17 2.29  32 2.85  35 2.85  33 2.85  22 3.34
                            36 3.34  37 3.34
  22  0.347  0.500  0.218- 117 1.89 127 1.89 121 1.89 113 2.00 110 2.00 106 2.00  32 2.29  43 2.67
                            17 2.85  13 2.85  18 2.85  21 3.34  25 3.34  23 3.34
  23  0.014  0.500  0.327- 120 1.77 121 1.77 122 1.77 134 2.11  18 2.29 137 2.39  40 2.85  35 2.85
                            32 2.85  20 3.34  36 3.34  22 3.34
  24  0.514  0.000  0.327- 123 1.77 124 1.77 125 1.77 132 1.90  10 2.29  30 2.66  33 2.85  34 2.85
                            47 2.85  37 3.34  38 3.34  39 3.34
  25  0.514  0.333  0.327- 126 1.77 127 1.77 128 1.77 144 1.89 133 1.92 135 1.93  13 2.29  34 2.85
                            32 2.85  40 2.85  38 3.34  22 3.34  20 3.34
  26  0.014  0.833  0.327- 129 1.77 130 1.77 131 1.77 142 1.83 143 1.84 139 1.95   8 2.29  47 2.85
                            33 2.85  35 2.85  39 3.34  37 3.34  36 3.34
  27  0.680  0.167  0.458- 133 1.85 132 2.00  28 3.12  40 3.28  34 3.28  47 3.28
  28  0.514  0.333  0.540-  49 2.30  56 2.42  63 2.55 135 2.58  27 3.12  29 3.12
  29  0.680  0.500  0.458- 136 1.82 135 2.03  31 3.12  28 3.12  32 3.28  35 3.28  40 3.28
  30  0.569  0.927  0.471- 132 2.63  24 2.66  33 3.00  53 3.04  47 3.20
  31  0.514  0.667  0.540- 136 1.82  51 2.32  58 2.43  66 2.56  29 3.12
  32  0.347  0.500  0.356- 134 1.82 135 1.87 117 2.23 127 2.23 121 2.23  22 2.29  21 2.85  25 2.85
                            23 2.85  29 3.28
  33  0.347  0.833  0.356- 142 1.83 138 2.21 129 2.23 123 2.23 118 2.23  37 2.29  24 2.85  26 2.85
                            21 2.85  30 3.00
  34  0.347  0.167  0.356- 144 1.84 141 1.90 132 1.97 126 2.23 124 2.23 115 2.23  38 2.29  25 2.85
                            24 2.85  19 2.85  27 3.28
  35  0.847  0.667  0.356- 143 1.86 137 1.95 131 2.23 122 2.23 119 2.23  36 2.29  23 2.85  21 2.85
                            26 2.85  29 3.28
  36  0.847  0.667  0.218- 131 1.89 122 1.89 119 1.89 111 2.00 108 2.00  97 2.00  35 2.29  45 2.67
                            18 2.85  17 2.85   8 2.85  23 3.34  21 3.34  26 3.34
  37  0.347  0.833  0.218- 129 1.89 123 1.89 118 1.89 101 2.00  98 2.00 112 2.00  33 2.29  41 2.67
                            10 2.85   8 2.85  17 2.85  24 3.34  26 3.34  21 3.34
  38  0.347  0.167  0.218- 126 1.89 124 1.89 115 1.89 107 2.00 104 2.00 100 2.00  34 2.29  42 2.67
                            13 2.85  10 2.85  14 2.85  25 3.34  24 3.34  19 3.34
  39  0.847  0.000  0.218- 116 1.89 125 1.89 130 1.89 103 2.00  99 2.00  96 2.00  47 2.29  46 2.67
                             8 2.85  14 2.85  10 2.85  26 3.34  19 3.34  24 3.34
  40  0.847  0.333  0.356- 133 1.91 114 2.23 120 2.23 128 2.23  20 2.29  19 2.85  23 2.85  25 2.85
                            27 3.28  29 3.28
  41  0.347  0.833  0.057- 101 2.00  98 2.00 112 2.00  65 2.56  37 2.67  73 2.68  78 2.74   9 2.85
                             7 2.85  16 2.85
  42  0.347  0.167  0.057- 107 2.00 104 2.00 100 2.00  71 2.59  38 2.67  77 2.71  82 2.78  12 2.85
                            11 2.85   9 2.85
  43  0.347  0.500  0.057- 113 2.00 110 2.00 106 2.00  69 2.57  22 2.67  75 2.70  80 2.76  16 2.85
                            15 2.85  12 2.85
  44  0.847  0.333  0.057- 105 2.00 109 2.00 102 2.00  70 2.58  20 2.67  76 2.71  81 2.77  12 2.85
                            11 2.85  15 2.85
  45  0.847  0.667  0.057- 111 2.00 108 2.00  97 2.00  67 2.56  36 2.67  74 2.69  79 2.75  16 2.85
                            15 2.85   7 2.85
  46  0.847  0.000  0.057- 103 2.00  99 2.00  96 2.00  62 2.55  72 2.67  39 2.67  86 2.79   7 2.85
                             9 2.85  11 2.85
  47  0.847  0.000  0.356- 116 2.23 125 2.23 130 2.23  39 2.29 139 2.33  26 2.85  19 2.85  24 2.85
                            30 3.20  27 3.28
  48  0.000  0.067  0.646-  54 2.81  60 2.81  61 2.81  55 2.81  68 2.81  59 2.81  84 2.84  85 2.84
                            88 2.84
  49  0.500  0.234  0.647-  28 2.30  55 2.81  61 2.81  63 2.81  56 2.81  60 2.81  54 2.81  89 2.84
                            87 2.84  94 2.84
  50  0.000  0.400  0.648-  56 2.81  61 2.81  63 2.81  55 2.81  64 2.81  57 2.81  90 2.84  91 2.84
                            93 2.84
  51  0.500  0.567  0.649-  31 2.32  57 2.81  64 2.81  66 2.81  58 2.81  63 2.81  56 2.81  95 2.84
                            92 2.84   5 2.84
  52  0.000  0.734  0.649-  68 2.81  58 2.81  59 2.81  64 2.81  66 2.81  57 2.81   1 2.84   3 2.84
                             2 2.84
  53  0.500  0.900  0.650-  83 2.78  66 2.81  58 2.81  68 2.81  59 2.81  60 2.81  54 2.81   6 2.84
                             4 2.84  30 3.04
  54  0.667  0.067  0.646-  48 2.81  60 2.81  61 2.81  49 2.81  68 2.81  53 2.81  84 2.84  83 2.84
                            87 2.84
  55  0.167  0.234  0.647-  61 2.81  49 2.81  50 2.81  63 2.81  48 2.81  60 2.81  88 2.84  89 2.84
                            91 2.84
  56  0.667  0.400  0.648-  28 2.42  50 2.81  63 2.81  61 2.81  49 2.81  64 2.81  51 2.81  90 2.84
                            94 2.84  92 2.84
  57  0.167  0.567  0.649-  64 2.81  51 2.81  52 2.81  66 2.81  50 2.81  63 2.81  93 2.84  95 2.84
                             3 2.84
  58  0.667  0.734  0.649-  31 2.43  52 2.81  68 2.81  53 2.81  66 2.81  64 2.81  51 2.81   1 2.84
                             5 2.84   4 2.84
  59  0.167  0.900  0.650-  85 2.78  68 2.81  52 2.81  66 2.81  53 2.81  48 2.81  60 2.81   2 2.84
                             6 2.84
  60  0.333  0.067  0.646-  48 2.81  54 2.81  49 2.81  55 2.81  53 2.81  59 2.81  83 2.84  85 2.84
                            89 2.84
  61  0.833  0.234  0.647-  55 2.81  50 2.81  49 2.81  56 2.81  48 2.81  54 2.81  88 2.84  87 2.84
                            90 2.84
  62  0.000  0.955  0.931-  46 2.55  72 2.81  78 2.81  79 2.81  73 2.81  86 2.81  77 2.81   2 2.84
                            84 2.89  85 2.89   9 3.07
  63  0.333  0.400  0.648-  28 2.55  50 2.81  56 2.81  49 2.81  55 2.81  51 2.81  57 2.81  94 2.84
                            91 2.84  95 2.84
  64  0.833  0.567  0.649-  57 2.81  52 2.81  51 2.81  58 2.81  50 2.81  56 2.81  93 2.84  92 2.84
                             1 2.84
  65  0.500  0.788  0.930-  41 2.56  80 2.81  74 2.81  79 2.81  73 2.81  78 2.81  72 2.81   6 2.84
                             4 2.84   5 2.84   7 3.08
  66  0.333  0.734  0.649-  31 2.56  53 2.81  59 2.81  58 2.81  52 2.81  51 2.81  57 2.81   5 2.84
                             3 2.84   6 2.84
  67  0.000  0.621  0.929-  45 2.56  79 2.81  73 2.81  74 2.81  80 2.81  81 2.81  75 2.81   1 2.84
                             3 2.84  93 2.84  16 3.09
  68  0.833  0.900  0.650-  84 2.78  52 2.81  59 2.81  58 2.81  53 2.81  48 2.81  54 2.81   2 2.84
                             4 2.84
  69  0.500  0.455  0.929-  43 2.57  75 2.81  81 2.81  82 2.81  76 2.81  80 2.81  74 2.81  95 2.84
                            92 2.84  94 2.84  15 3.10
  70  0.000  0.288  0.928-  44 2.58  76 2.81  81 2.81  82 2.81  75 2.81  86 2.81  77 2.81  90 2.84
                            91 2.84  88 2.84  12 3.11
  71  0.500  0.121  0.927-  42 2.59  77 2.81  86 2.81  82 2.81  76 2.81  78 2.81  72 2.81  89 2.84
                            87 2.84  83 2.84  11 3.12
  72  0.667  0.955  0.931-  46 2.67  62 2.81  78 2.81  79 2.81  65 2.81  86 2.81  71 2.81   4 2.84
                            84 2.89  83 2.89   7 3.13
  73  0.167  0.788  0.930-  41 2.68  67 2.81  80 2.81  79 2.81  65 2.81  62 2.81  78 2.81   2 2.84
                             6 2.84   3 2.84  16 3.14
  74  0.667  0.621  0.929-  45 2.69  79 2.81  65 2.81  67 2.81  80 2.81  81 2.81  69 2.81   1 2.84
                             5 2.84  92 2.84  15 3.15
  75  0.167  0.455  0.929-  43 2.70  81 2.81  69 2.81  70 2.81  82 2.81  67 2.81  80 2.81  93 2.84
                            95 2.84  91 2.84  12 3.16
  76  0.667  0.288  0.928-  44 2.71  70 2.81  82 2.81  81 2.81  69 2.81  86 2.81  71 2.81  90 2.84
                            94 2.84  87 2.84  11 3.17
  77  0.167  0.121  0.927-  42 2.71  86 2.81  71 2.81  70 2.81  82 2.81  62 2.81  78 2.81  88 2.84
                            89 2.84  85 2.84   9 3.18
  78  0.333  0.955  0.931-  41 2.74  62 2.81  72 2.81  65 2.81  73 2.81  71 2.81  77 2.81   6 2.84
                            83 2.89  85 2.89   9 2.96
  79  0.833  0.788  0.930-  45 2.75  67 2.81  74 2.81  73 2.81  65 2.81  62 2.81  72 2.81   2 2.84
                             4 2.84   1 2.84   7 2.97
  80  0.333  0.621  0.929-  43 2.76  65 2.81  73 2.81  67 2.81  74 2.81  69 2.81  75 2.81   5 2.84
                             3 2.84  95 2.84  16 2.98
  81  0.833  0.455  0.929-  44 2.77  75 2.81  70 2.81  69 2.81  76 2.81  67 2.81  74 2.81  93 2.84
                            92 2.84  90 2.84  15 2.99
  82  0.333  0.288  0.928-  42 2.78  70 2.81  76 2.81  69 2.81  75 2.81  71 2.81  77 2.81  94 2.84
                            91 2.84  89 2.84  12 3.00
  83  0.500  0.011  0.787-  53 2.78  84 2.81  85 2.81  89 2.81  87 2.81   6 2.81   4 2.81  60 2.84
                            54 2.84  71 2.84  78 2.89  72 2.89
  84  0.833  0.011  0.787-  68 2.78  85 2.81  88 2.81  83 2.81  87 2.81   2 2.81   4 2.81  48 2.84
                            54 2.84  86 2.84  62 2.89  72 2.89
  85  0.167  0.011  0.787-  59 2.78  84 2.81  83 2.81  88 2.81  89 2.81   2 2.81   6 2.81  48 2.84
                            60 2.84  77 2.84  62 2.89  78 2.89
  86  0.833  0.121  0.927-  46 2.79  77 2.81  71 2.81  70 2.81  76 2.81  62 2.81  72 2.81  88 2.84
                            87 2.84  84 2.84  11 3.01
  87  0.667  0.178  0.787-  88 2.81  89 2.81  84 2.81  83 2.81  90 2.81  94 2.81  61 2.84  49 2.84
                            86 2.84  71 2.84  76 2.84  54 2.84
  88  0.000  0.178  0.787-  87 2.81  84 2.81  89 2.81  85 2.81  90 2.81  91 2.81  61 2.84  55 2.84
                            86 2.84  77 2.84  70 2.84  48 2.84
  89  0.333  0.178  0.787-  87 2.81  88 2.81  83 2.81  85 2.81  94 2.81  91 2.81  49 2.84  55 2.84
                            71 2.84  77 2.84  82 2.84  60 2.84
  90  0.833  0.344  0.788-  91 2.81  93 2.81  94 2.81  92 2.81  88 2.81  87 2.81  70 2.84  76 2.84
                            50 2.84  56 2.84  61 2.84  81 2.84
  91  0.167  0.344  0.788-  90 2.81  94 2.81  93 2.81  95 2.81  88 2.81  89 2.81  70 2.84  82 2.84
                            50 2.84  63 2.84  55 2.84  75 2.84
  92  0.667  0.511  0.789-  93 2.81  95 2.81  90 2.81  94 2.81   1 2.81   5 2.81  81 2.84  69 2.84
                            64 2.84  51 2.84  56 2.84  74 2.84
  93  0.000  0.511  0.789-  92 2.81  90 2.81  95 2.81  91 2.81   1 2.81   3 2.81  81 2.84  75 2.84
                            64 2.84  57 2.84  50 2.84  67 2.84
  94  0.500  0.344  0.788-  90 2.81  91 2.81  95 2.81  92 2.81  89 2.81  87 2.81  82 2.84  76 2.84
                            63 2.84  56 2.84  49 2.84  69 2.84
  95  0.333  0.511  0.789-  92 2.81  93 2.81  94 2.81  91 2.81   5 2.81   3 2.81  69 2.84  75 2.84
                            51 2.84  57 2.84  63 2.84  80 2.84
  96  0.694  0.949  0.138-   7 1.89  10 1.89  39 2.00  46 2.00
  97  0.847  0.769  0.138-   7 1.89   8 1.89  36 2.00  45 2.00
  98  0.500  0.782  0.138-   7 1.89  17 1.89  37 2.00  41 2.00
  99  0.000  0.949  0.138-   8 1.89   9 1.89  39 2.00  46 2.00
 100  0.194  0.116  0.138-   9 1.89  14 1.89  38 2.00  42 2.00
 101  0.347  0.935  0.138-   9 1.89  10 1.89  37 2.00  41 2.00
 102  0.694  0.282  0.138-  11 1.89  13 1.89  20 2.00  44 2.00
 103  0.847  0.102  0.138-  11 1.89  14 1.89  39 2.00  46 2.00
 104  0.500  0.116  0.138-  11 1.89  10 1.89  38 2.00  42 2.00
 105  0.000  0.282  0.138-  12 1.89  14 1.89  20 2.00  44 2.00
 106  0.194  0.449  0.138-  12 1.89  18 1.89  22 2.00  43 2.00
 107  0.347  0.269  0.138-  12 1.89  13 1.89  38 2.00  42 2.00
 108  0.694  0.616  0.138-  15 1.89  17 1.89  36 2.00  45 2.00
 109  0.847  0.435  0.138-  15 1.89  18 1.89  20 2.00  44 2.00
 110  0.500  0.449  0.138-  15 1.89  13 1.89  22 2.00  43 2.00
 111  0.000  0.616  0.138-  16 1.89  18 1.89  36 2.00  45 2.00
 112  0.194  0.782  0.138-  16 1.89   8 1.89  37 2.00  41 2.00
 113  0.347  0.602  0.138-  16 1.89  17 1.89  22 2.00  43 2.00
 114  0.861  0.218  0.269-  19 1.77  20 1.89  14 2.00  40 2.23
 115  0.167  0.218  0.269-  19 1.77  38 1.89  14 2.00  34 2.23
 116  0.014  0.065  0.269-  19 1.77  39 1.89  14 2.00  47 2.23
 117  0.514  0.565  0.269-  21 1.77  22 1.89  17 2.00  32 2.23
 118  0.361  0.718  0.269-  21 1.77  37 1.89  17 2.00  33 2.23
 119  0.667  0.718  0.269-  21 1.77  36 1.89  17 2.00  35 2.23
 120  0.014  0.398  0.269-  23 1.77  20 1.89  18 2.00  40 2.23
 121  0.167  0.551  0.269-  23 1.77  22 1.89  18 2.00  32 2.23
 122  0.861  0.551  0.269-  23 1.77  36 1.89  18 2.00  35 2.23
 123  0.514  0.898  0.269-  24 1.77  37 1.89  10 2.00  33 2.23
 124  0.361  0.051  0.269-  24 1.77  38 1.89  10 2.00  34 2.23
 125  0.667  0.051  0.269-  24 1.77  39 1.89  10 2.00  47 2.23
 126  0.514  0.231  0.269-  25 1.77  38 1.89  13 2.00  34 2.23
 127  0.361  0.384  0.269-  25 1.77  22 1.89  13 2.00  32 2.23
 128  0.667  0.384  0.269-  25 1.77  20 1.89  13 2.00  40 2.23
 129  0.167  0.884  0.269-  26 1.77  37 1.89   8 2.00  33 2.23
 130  0.861  0.884  0.269-  26 1.77  39 1.89   8 2.00  47 2.23
 131  0.014  0.731  0.269-  26 1.77  36 1.89   8 2.00  35 2.23
 132  0.507  0.090  0.410-  24 1.90  34 1.97  27 2.00  30 2.63
 133  0.663  0.268  0.392-  27 1.85  40 1.91  25 1.92
 134  0.186  0.430  0.396-  32 1.82  23 2.11
 135  0.499  0.428  0.408-  32 1.87  25 1.93  29 2.03  28 2.58
 136  0.694  0.616  0.499-  29 1.82  31 1.82
 137  0.053  0.637  0.402-  35 1.95  23 2.39
 138  0.208  0.947  0.409- 139 1.26  33 2.21
 139  0.064  0.923  0.411- 138 1.26 140 1.61  26 1.95  47 2.33
 140  0.000  0.949  0.499- 139 1.61
 141  0.185  0.082  0.386-  34 1.90  19 2.14
 142  0.166  0.772  0.384-  33 1.83  26 1.83
 143  0.879  0.782  0.402-  26 1.84  35 1.86
 144  0.344  0.287  0.389-  34 1.84  25 1.89
 
  LATTYP: Found a simple orthorhombic cell.
 ALAT       =     8.4283000000
 B/A-ratio  =     1.7320456082
 C/A-ratio  =     1.9675628537
  
  Lattice vectors:
  
 A1 = (   8.4283000000,   0.0000000000,   0.0000000000)
 A2 = (   0.0000000000,  14.5982000000,   0.0000000000)
 A3 = (   0.0000000000,   0.0000000000,  16.5832100000)


Analysis of symmetry for initial positions (statically):
=====================================================================
 Subroutine PRICEL returns:
 Original cell was already a primitive cell.
 

 Routine SETGRP: Setting up the symmetry group for a 
 simple orthorhombic supercell.


 Subroutine GETGRP returns: Found  1 space group operations
 (whereof  1 operations were pure point group operations)
 out of a pool of  8 trial point group operations.


The static configuration has the point symmetry C_1 .


Analysis of symmetry for dynamics (positions and initial velocities):
=====================================================================
 Subroutine PRICEL returns:
 Original cell was already a primitive cell.
 

 Routine SETGRP: Setting up the symmetry group for a 
 simple orthorhombic supercell.


 Subroutine GETGRP returns: Found  1 space group operations
 (whereof  1 operations were pure point group operations)
 out of a pool of  8 trial point group operations.


The dynamic configuration has the point symmetry C_1 .


Analysis of constrained symmetry for selective dynamics:
=====================================================================
 Subroutine PRICEL returns:
 Original cell was already a primitive cell.
 

 Routine SETGRP: Setting up the symmetry group for a 
 simple orthorhombic supercell.


 Subroutine GETGRP returns: Found  1 space group operations
 (whereof  1 operations were pure point group operations)
 out of a pool of  8 trial point group operations.


The constrained configuration has the point symmetry C_1 .


 Subroutine INISYM returns: Found  1 space group operations
 (whereof  1 operations are pure point group operations),
 and found     1 'primitive' translations

 
 
 KPOINTS: Al_Al2O3                                

Automatic generation of k-mesh.
 generate k-points for:    2    1    1
Space group operators:
 irot       det(A)        alpha          n_x          n_y          n_z        tau_x        tau_y        tau_z
    1     1.000000     0.000001     1.000000     0.000000     0.000000     0.000000     0.000000     0.000000
 
 Subroutine IBZKPT returns following result:
 ===========================================
 
 Found      2 irreducible k-points:
 
 Following reciprocal coordinates:
            Coordinates               Weight
  0.000000  0.000000  0.000000      1.000000
  0.500000  0.000000  0.000000      1.000000
 
 Following cartesian coordinates:
            Coordinates               Weight
  0.000000  0.000000  0.000000      1.000000
  0.059324  0.000000  0.000000      1.000000
 


--------------------------------------------------------------------------------------------------------




 Dimension of arrays:
   k-points           NKPTS =      2   k-points in BZ     NKDIM =      2   number of bands    NBANDS=    368
   number of dos      NEDOS =    301   number of ions     NIONS =    144
   non local maximal  LDIM  =      4   non local SUM 2l+1 LMDIM =      8
   total plane-waves  NPLWV = 580608
   max r-space proj   IRMAX =   4142   max aug-charges    IRDMAX=  11273
   dimension x,y,z NGX =    56 NGY =   96 NGZ =  108
   dimension x,y,z NGXF=   112 NGYF=  192 NGZF=  216
   support grid    NGXF=   112 NGYF=  192 NGZF=  216
   ions per type =              95  49
 NGX,Y,Z   is equivalent  to a cutoff of  11.05, 10.93, 10.83 a.u.
 NGXF,Y,Z  is equivalent  to a cutoff of  22.09, 21.87, 21.65 a.u.


 I would recommend the setting:
   dimension x,y,z NGX =    55 NGY =   95 NGZ =  108
 SYSTEM =  Al_Al2O3                                
 POSCAR =  Al95 O49                                

 Startparameter for this run:
   NWRITE =      2    write-flag & timer
   PREC   = accura    normal or accurate (medium, high low for compatibility)
   ISTART =      0    job   : 0-new  1-cont  2-samecut
   ICHARG =      2    charge: 1-file 2-atom 10-const
   ISPIN  =      1    spin polarized calculation?
   LNONCOLLINEAR =      F non collinear calculations
   LSORBIT =      F    spin-orbit coupling
   INIWAV =      1    electr: 0-lowe 1-rand  2-diag
   LASPH  =      F    aspherical Exc in radial PAW
   METAGGA=      F    non-selfconsistent MetaGGA calc.

 Electronic Relaxation 1
   ENCUT  =  400.0 eV  29.40 Ry    5.42 a.u.  13.74 23.81 27.04*2*pi/ulx,y,z
   ENINI  =  400.0     initial cutoff
   ENAUG  =  605.4 eV  augmentation charge cutoff
   NELM   =    100;   NELMIN=  2; NELMDL= -5     # of ELM steps 
   EDIFF  = 0.1E-02   stopping-criterion for ELM
   LREAL  =      T    real-space projection
   NLSPLINE    = F    spline interpolate recip. space projectors
   LCOMPAT=      F    compatible to vasp.4.4
   GGA_COMPAT  = T    GGA compatible to vasp.4.4-vasp.4.6
   LMAXPAW     = -100 max onsite density
   LMAXMIX     =    2 max onsite mixed and CHGCAR
   VOSKOWN=      0    Vosko Wilk Nusair interpolation
   ROPT   =   -0.00025  -0.00025
 Ionic relaxation
   EDIFFG = 0.1E-01   stopping-criterion for IOM
   NSW    =    100    number of steps for IOM
   NBLOCK =      1;   KBLOCK =    100    inner block; outer block 
   IBRION =      2    ionic relax: 0-MD 1-quasi-New 2-CG
   NFREE  =      1    steps in history (QN), initial steepest desc. (CG)
   ISIF   =      2    stress and relaxation
   IWAVPR =     11    prediction:  0-non 1-charg 2-wave 3-comb
   ISYM   =      2    0-nonsym 1-usesym 2-fastsym
   LCORR  =      T    Harris-Foulkes like correction to forces

   POTIM  = 0.5000    time-step for ionic-motion
   TEIN   =    0.0    initial temperature
   TEBEG  =    0.0;   TEEND  =   0.0 temperature during run
   SMASS  =  -3.00    Nose mass-parameter (am)
   estimated Nose-frequenzy (Omega)   =  0.10E-29 period in steps =****** mass=  -0.162E-26a.u.
   SCALEE = 1.0000    scale energy and forces
   NPACO  =    256;   APACO  = 16.0  distance and # of slots for P.C.
   PSTRESS=    0.0 pullay stress

  Mass of Ions in am
   POMASS =  26.98 16.00
  Ionic Valenz
   ZVAL   =   3.00  6.00
  Atomic Wigner-Seitz radii
   RWIGS  =  -1.00 -1.00
  virtual crystal weights 
   VCA    =   1.00  1.00
   NELECT =     579.0000    total number of electrons
   NUPDOWN=      -1.0000    fix difference up-down

 DOS related values:
   EMIN   =  10.00;   EMAX   =-10.00  energy-range for DOS
   EFERMI =   0.00
   ISMEAR =     1;   SIGMA  =   0.10  broadening in eV -4-tet -1-fermi 0-gaus

 Electronic relaxation 2 (details)
   IALGO  =     68    algorithm
   LDIAG  =      T    sub-space diagonalisation (order eigenvalues)
   LSUBROT=      F    optimize rotation matrix (better conditioning)
   TURBO    =      0    0=normal 1=particle mesh
   IRESTART =      0    0=no restart 2=restart with 2 vectors
   NREBOOT  =      0    no. of reboots
   NMIN     =      0    reboot dimension
   EREF     =   0.00    reference energy to select bands
   IMIX   =      4    mixing-type and parameters
     AMIX     =   0.40;   BMIX     =  1.00
     AMIX_MAG =   1.60;   BMIX_MAG =  1.00
     AMIN     =   0.10
     WC   =   100.;   INIMIX=   1;  MIXPRE=   1;  MAXMIX= -45

 Intra band minimization:
   WEIMIN = 0.0010     energy-eigenvalue tresh-hold
   EBREAK =  0.68E-06  absolut break condition
   DEPER  =   0.30     relativ break condition  

   TIME   =   0.40     timestep for ELM

  volume/ion in A,a.u.               =      14.17        95.62
  Fermi-wavevector in a.u.,A,eV,Ry     =   1.075800  2.032968 15.746656  1.157347
  Thomas-Fermi vector in A             =   2.211667
 
 Write flags
   LWAVE  =      F    write WAVECAR
   LCHARG =      F    write CHGCAR
   LVTOT  =      F    write LOCPOT, total local potential
   LVHAR  =      F    write LOCPOT, Hartree potential only
   LELF   =      F    write electronic localiz. function (ELF)
   LORBIT =      0    0 simple, 1 ext, 2 COOP (PROOUT)


 Dipole corrections
   LMONO  =      F    monopole corrections only (constant potential shift)
   LDIPOL =      F    correct potential (dipole corrections)
   IDIPOL =      0    1-x, 2-y, 3-z, 4-all directions 
   EPSILON=  1.0000000 bulk dielectric constant

 Exchange correlation treatment:
   GGA     =    --    GGA type
   LEXCH   =     8    internal setting for exchange type
   VOSKOWN=      0    Vosko Wilk Nusair interpolation
   LHFCALC =     F    Hartree Fock is set to
   LHFONE  =     F    Hartree Fock one center treatment
   AEXX    =    0.0000 exact exchange contribution

 Linear response parameters
   LEPSILON=     F    determine dielectric tensor
   LRPA    =     F    only Hartree local field effects (RPA)
   LNABLA  =     F    use nabla operator in PAW spheres
   LVEL    =     F    velocity operator in full k-point grid
   LINTERFAST=   F  fast interpolation
   KINTER  =     0    interpolate to denser k-point grid
   CSHIFT  =0.1000    complex shift for real part using Kramers Kronig
   OMEGAMAX=  -1.0    maximum frequency
   DEG_THRESHOLD= 0.2000000E-02 threshold for treating states as degnerate
   RTIME   =    0.100 relaxation time in fs

 Orbital magnetization related:
   ORBITALMAG=     F  switch on orbital magnetization
   LCHIMAG   =     F  perturbation theory with respect to B field
   DQ        =  0.001000  dq finite difference perturbation B field



--------------------------------------------------------------------------------------------------------


 conjugate gradient relaxation of ions
   using selective dynamics as specified on POSCAR
 charge density and potential will be updated during run
 non-spin polarized calculation
 RMM-DIIS sequential band-by-band and
  variant of blocked Davidson during initial phase
 perform sub-space diagonalisation
    before iterative eigenvector-optimisation
 modified Broyden-mixing scheme, WC =      100.0
 initial mixing is a Kerker type mixing with AMIX =  0.4000 and BMIX =      1.0000
 Hartree-type preconditioning will be used
 using additional bands           78
 real space projection scheme for non local part
 use partial core corrections
 calculate Harris-corrections to forces 
   (improved forces if not selfconsistent)
 use gradient corrections 
 use of overlap-Matrix (Vanderbilt PP)
 Methfessel and Paxton  Order N= 1 SIGMA  =   0.10


--------------------------------------------------------------------------------------------------------


  energy-cutoff  :      400.00
  volume of cell :     2040.37
      direct lattice vectors                 reciprocal lattice vectors
      8.428300000   0.000000000   0.000000000      0.118647889   0.000000000   0.000000000
      0.000000000  14.598200000   0.000000000      0.000000000   0.068501596   0.000000000
      0.000000000   0.000000000  16.583210000      0.000000000   0.000000000   0.060301956

  length of vectors
      8.428300000  14.598200000  16.583210000      0.118647889   0.068501596   0.060301956


 
 k-points in units of 2pi/SCALE and weight: Al_Al2O3                                
   0.00000000  0.00000000  0.00000000       0.500
   0.05932394  0.00000000  0.00000000       0.500
 
 k-points in reciprocal lattice and weights: Al_Al2O3                                
   0.00000000  0.00000000  0.00000000       0.500
   0.50000000  0.00000000  0.00000000       0.500
 
 position of ions in fractional coordinates (direct lattice) 
   0.83333500  0.67754300  0.78930800
   0.00000000  0.84420700  0.78999400
   0.16666700  0.67754300  0.78930800
   0.66666800  0.84420700  0.78999400
   0.50000100  0.67754300  0.78930800
   0.33333400  0.84420700  0.78999400
   0.68026100  0.83333600  0.08660300
   0.01359400  0.83333600  0.18854400
   0.18025900  0.00000000  0.08660300
   0.51359300  0.00000000  0.18854400
   0.68026100  0.16666700  0.08660300
   0.18025900  0.33333300  0.08660300
   0.51359300  0.33333300  0.18854400
   0.01359400  0.16666700  0.18854400
   0.68026100  0.50000000  0.08660300
   0.18025900  0.66666600  0.08660300
   0.51359300  0.66666600  0.18854400
   0.01359400  0.50000000  0.18854400
   0.01359400  0.16666700  0.32676700
   0.84692800  0.33333300  0.21815900
   0.51359300  0.66666600  0.32676700
   0.34692800  0.50000000  0.21815900
   0.01359400  0.50000000  0.32676700
   0.51359300  0.00000000  0.32676700
   0.51359300  0.33333300  0.32676700
   0.01359400  0.83333600  0.32676700
   0.68026100  0.16666700  0.45811500
   0.51359300  0.33333300  0.53966700
   0.68026100  0.50000000  0.45811500
   0.56895200  0.92747100  0.47125700
   0.51359300  0.66666600  0.53966700
   0.34692800  0.50000000  0.35638700
   0.34692800  0.83333600  0.35638700
   0.34692800  0.16666700  0.35638700
   0.84692800  0.66666700  0.35638700
   0.84692800  0.66666700  0.21815900
   0.34692800  0.83333600  0.21815900
   0.34692800  0.16666700  0.21815900
   0.84692800  0.00000000  0.21815900
   0.84692800  0.33333300  0.35638700
   0.34692800  0.83333600  0.05698300
   0.34692800  0.16666700  0.05698300
   0.34692800  0.50000000  0.05698300
   0.84692800  0.33333300  0.05698300
   0.84692800  0.66666700  0.05698300
   0.84692800  0.00000000  0.05698300
   0.84692800  0.00000000  0.35638700
   0.00000000  0.06715700  0.64645100
   0.50000100  0.23382400  0.64714600
   0.00000000  0.40049000  0.64782600
   0.50000100  0.56715700  0.64851200
   0.00000000  0.73382300  0.64920200
   0.50000100  0.90048800  0.64988900
   0.66666800  0.06715700  0.64645100
   0.16666700  0.23382400  0.64714600
   0.66666800  0.40049000  0.64782600
   0.16666700  0.56715700  0.64851200
   0.66666800  0.73382300  0.64920200
   0.16666700  0.90048800  0.64988900
   0.33333400  0.06715700  0.64645100
   0.83333500  0.23382400  0.64714600
   0.00000000  0.95459700  0.93078000
   0.33333400  0.40049000  0.64782600
   0.83333500  0.56715700  0.64851200
   0.50000100  0.78792600  0.93010000
   0.33333400  0.73382300  0.64920200
   0.00000000  0.62126200  0.92941400
   0.83333500  0.90048800  0.64988900
   0.50000100  0.45459500  0.92872500
   0.00000000  0.28792900  0.92803900
   0.50000100  0.12126200  0.92735000
   0.66666800  0.95459700  0.93078000
   0.16666700  0.78792600  0.93010000
   0.66666800  0.62126200  0.92941400
   0.16666700  0.45459500  0.92872500
   0.66666800  0.28792900  0.92803900
   0.16666700  0.12126200  0.92735000
   0.33333400  0.95459700  0.93078000
   0.83333500  0.78792600  0.93010000
   0.33333400  0.62126200  0.92941400
   0.83333500  0.45459500  0.92872500
   0.33333400  0.28792900  0.92803900
   0.50000100  0.01087700  0.78655700
   0.83333500  0.01087700  0.78655700
   0.16666700  0.01087700  0.78655700
   0.83333500  0.12126200  0.92735000
   0.66666800  0.17754300  0.78724600
   0.00000000  0.17754300  0.78724600
   0.33333400  0.17754300  0.78724600
   0.83333500  0.34421000  0.78793300
   0.16666700  0.34421000  0.78793300
   0.66666800  0.51087600  0.78861900
   0.00000000  0.51087600  0.78861900
   0.50000100  0.34421000  0.78793300
   0.33333400  0.51087600  0.78861900
   0.69385400  0.94897300  0.13757100
   0.84692800  0.76871800  0.13757100
   0.50000000  0.78230900  0.13757100
   0.00000000  0.94897300  0.13757100
   0.19385400  0.11564200  0.13757100
   0.34692800  0.93538200  0.13757100
   0.69385400  0.28230900  0.13757100
   0.84692800  0.10204900  0.13757100
   0.50000000  0.11564300  0.13757100
   0.00000000  0.28230900  0.13757100
   0.19385400  0.44897600  0.13757100
   0.34692800  0.26871500  0.13757100
   0.69385400  0.61564200  0.13757100
   0.84692800  0.43538200  0.13757100
   0.50000000  0.44897600  0.13757100
   0.00000000  0.61564200  0.13757100
   0.19385400  0.78230900  0.13757100
   0.34692800  0.60204800  0.13757100
   0.86052100  0.21769100  0.26913200
   0.16666700  0.21769100  0.26913200
   0.01359400  0.06461800  0.26913200
   0.51359300  0.56461800  0.26913200
   0.36052100  0.71769100  0.26913200
   0.66666700  0.71769100  0.26913200
   0.01359400  0.39795100  0.26913200
   0.16666700  0.55102500  0.26913200
   0.86052100  0.55102500  0.26913200
   0.51359300  0.89795300  0.26913200
   0.36052100  0.05102500  0.26913200
   0.66666700  0.05102500  0.26913200
   0.51359300  0.23128500  0.26913200
   0.36052100  0.38435800  0.26913200
   0.66666700  0.38435800  0.26913200
   0.16666700  0.88435600  0.26913200
   0.86052100  0.88435600  0.26913200
   0.01359400  0.73128200  0.26913200
   0.50734300  0.08999500  0.40984600
   0.66346100  0.26827800  0.39211000
   0.18550600  0.42958900  0.39559700
   0.49899000  0.42768300  0.40817600
   0.69385400  0.61564200  0.49888900
   0.05341600  0.63734400  0.40240300
   0.20802900  0.94701400  0.40909200
   0.06435000  0.92266200  0.41062800
   0.00000000  0.94897300  0.49888900
   0.18548000  0.08179800  0.38605500
   0.16571800  0.77223900  0.38400600
   0.87867100  0.78180900  0.40160900
   0.34400100  0.28704100  0.38917400
 
 position of ions in cartesian coordinates  (Angst):
   7.02359738  9.89090822 13.08926032
   0.00000000 12.32390263 13.10063640
   1.40471948  9.89090822 13.08926032
   5.61887790 12.32390263 13.10063640
   4.21415843  9.89090822 13.08926032
   2.80943895 12.32390263 13.10063640
   5.73344379 12.16520560  1.43615574
   0.11457431 12.16520560  3.12666475
   1.51927693  0.00000000  1.43615574
   4.32871588  0.00000000  3.12666475
   5.73344379  2.43303820  1.43615574
   1.51927693  4.86606180  1.43615574
   4.32871588  4.86606180  3.12666475
   0.11457431  2.43303820  3.12666475
   5.73344379  7.29910000  1.43615574
   1.51927693  9.73212360  1.43615574
   4.32871588  9.73212360  3.12666475
   0.11457431  7.29910000  3.12666475
   0.11457431  2.43303820  5.41884578
   7.13816326  4.86606180  3.61777651
   4.32871588  9.73212360  5.41884578
   2.92401326  7.29910000  3.61777651
   0.11457431  7.29910000  5.41884578
   4.32871588  0.00000000  5.41884578
   4.32871588  4.86606180  5.41884578
   0.11457431 12.16520560  5.41884578
   5.73344379  2.43303820  7.59701725
   4.32871588  4.86606180  8.94941119
   5.73344379  7.29910000  7.59701725
   4.79529814 13.53940715  7.81495379
   4.32871588  9.73212360  8.94941119
   2.92401326  7.29910000  5.91004046
   2.92401326 12.16520560  5.91004046
   2.92401326  2.43303820  5.91004046
   7.13816326  9.73213820  5.91004046
   7.13816326  9.73213820  3.61777651
   2.92401326 12.16520560  3.61777651
   2.92401326  2.43303820  3.61777651
   7.13816326  0.00000000  3.61777651
   7.13816326  4.86606180  5.91004046
   2.92401326 12.16520560  0.94496106
   2.92401326  2.43303820  0.94496106
   2.92401326  7.29910000  0.94496106
   7.13816326  4.86606180  0.94496106
   7.13816326  9.73213820  0.94496106
   7.13816326  0.00000000  0.94496106
   7.13816326  0.00000000  5.91004046
   0.00000000  0.98037132 10.72023269
   4.21415843  3.41340952 10.73175802
   0.00000000  5.84643312 10.74303460
   4.21415843  8.27947132 10.75441068
   0.00000000 10.71249492 10.76585310
   4.21415843 13.14550392 10.77724576
   5.61887790  0.98037132 10.72023269
   1.40471948  3.41340952 10.73175802
   5.61887790  5.84643312 10.74303460
   1.40471948  8.27947132 10.75441068
   5.61887790 10.71249492 10.76585310
   1.40471948 13.14550392 10.77724576
   2.80943895  0.98037132 10.72023269
   7.02359738  3.41340952 10.73175802
   0.00000000 13.93539793 15.43532020
   2.80943895  5.84643312 10.74303460
   7.02359738  8.27947132 10.75441068
   4.21415843 11.50230133 15.42404362
   2.80943895 10.71249492 10.76585310
   0.00000000  9.06930693 15.41266754
   7.02359738 13.14550392 10.77724576
   4.21415843  6.63626873 15.40124171
   0.00000000  4.20324513 15.38986563
   4.21415843  1.77020693 15.37843979
   5.61887790 13.93539793 15.43532020
   1.40471948 11.50230133 15.42404362
   5.61887790  9.06930693 15.41266754
   1.40471948  6.63626873 15.40124171
   5.61887790  4.20324513 15.38986563
   1.40471948  1.77020693 15.37843979
   2.80943895 13.93539793 15.43532020
   7.02359738 11.50230133 15.42404362
   2.80943895  9.06930693 15.41266754
   7.02359738  6.63626873 15.40124171
   2.80943895  4.20324513 15.38986563
   4.21415843  0.15878462 13.04363991
   7.02359738  0.15878462 13.04363991
   1.40471948  0.15878462 13.04363991
   7.02359738  1.77020693 15.37843979
   5.61887790  2.59180822 13.05506574
   0.00000000  2.59180822 13.05506574
   2.80943895  2.59180822 13.05506574
   7.02359738  5.02484642 13.06645840
   1.40471948  5.02484642 13.06645840
   5.61887790  7.45787002 13.07783449
   0.00000000  7.45787002 13.07783449
   4.21415843  5.02484642 13.06645840
   2.80943895  7.45787002 13.07783449
   5.84800967 13.85329765  2.28136878
   7.13816326 11.22189911  2.28136878
   4.21415000 11.42030324  2.28136878
   0.00000000 13.85329765  2.28136878
   1.63385967  1.68816504  2.28136878
   2.92401326 13.65489351  2.28136878
   5.84800967  4.12120324  2.28136878
   7.13816326  1.48973171  2.28136878
   4.21415000  1.68817964  2.28136878
   0.00000000  4.12120324  2.28136878
   1.63385967  6.55424144  2.28136878
   2.92401326  3.92275531  2.28136878
   5.84800967  8.98726504  2.28136878
   7.13816326  6.35579351  2.28136878
   4.21415000  6.55424144  2.28136878
   0.00000000  8.98726504  2.28136878
   1.63385967 11.42030324  2.28136878
   2.92401326  8.78881711  2.28136878
   7.25272914  3.17789676  4.46307247
   1.40471948  3.17789676  4.46307247
   0.11457431  0.94330649  4.46307247
   4.32871588  8.24240649  4.46307247
   3.03857914 10.47699676  4.46307247
   5.61886948 10.47699676  4.46307247
   0.11457431  5.80936829  4.46307247
   1.40471948  8.04397316  4.46307247
   7.25272914  8.04397316  4.46307247
   4.32871588 13.10849748  4.46307247
   3.03857914  0.74487316  4.46307247
   5.61886948  0.74487316  4.46307247
   4.32871588  3.37634469  4.46307247
   3.03857914  5.61093496  4.46307247
   5.61886948  5.61093496  4.46307247
   1.40471948 12.91000576  4.46307247
   7.25272914 12.91000576  4.46307247
   0.11457431 10.67540089  4.46307247
   4.27603901  1.31376501  6.79656229
   5.59184835  3.91637590  6.50244247
   1.56350022  6.27122614  6.56026813
   4.20563742  6.24340197  6.76886832
   5.84800967  8.98726504  8.27318105
   0.45020607  9.30407518  6.67313345
   1.75333082 13.82469977  6.78405855
   0.54236110 13.46920441  6.80953036
   0.00000000 13.85329765  8.27318105
   1.56328108  1.19410356  6.40203114
   1.39672102 11.27329937  6.36805214
   7.40570279 11.41300414  6.65996638
   2.89934363  4.19028193  6.45375417
 


--------------------------------------------------------------------------------------------------------


 k-point  1 :   0.0000 0.0000 0.0000  plane waves:   37067
 k-point  2 :   0.5000 0.0000 0.0000  plane waves:   37020

 maximum and minimum number of plane-waves per node :      9291     9237

 maximum number of plane-waves:     37067
 maximum index in each direction: 
   IXMAX=   13   IYMAX=   23   IZMAX=   27
   IXMIN=  -14   IYMIN=  -23   IZMIN=  -27

 NGX is ok and might be reduce to  56
 NGY is ok and might be reduce to  94
 WARNING: aliasing errors must be expected set NGZ to 110 to avoid them
 aliasing errors are usually negligible using standard VASP settings
 and one can safely disregard these warnings

 real space projection operators:
  total allocation   :      30183.88 KBytes
  max/ min on nodes  :       7569.88       7526.00


 parallel 3D FFT for wavefunctions:
    minimum data exchange during FFTs selected (reduces bandwidth)
 parallel 3D FFT for charge:
    minimum data exchange during FFTs selected (reduces bandwidth)


 total amount of memory used by VASP on root node    88518. kBytes
========================================================================

   base      :      30000. kBytes
   nonlr-proj:      19399. kBytes
   fftplans  :       9736. kBytes
   grid      :      15178. kBytes
   one-center:        110. kBytes
   wavefun   :      14095. kBytes
 
     INWAV:  cpu time    0.0000: real time    0.0001
 Broyden mixing: mesh for mixing (old mesh)
   NGX = 27   NGY = 47   NGZ = 55
  (NGX  =112   NGY  =192   NGZ  =216)
  gives a total of  69795 points

 initial charge density was supplied:
 charge density of overlapping atoms calculated
 number of electron     579.0000000 magnetization 
 keeping initial charge density in first step


--------------------------------------------------------------------------------------------------------


 Maximum index for non-local projection operator         1012
 Maximum index for augmentation-charges          585 (set IRDMAX)


--------------------------------------------------------------------------------------------------------


 First call to EWALD:  gamma=   0.140
 Maximum number of real-space cells 4x 2x 2
 Maximum number of reciprocal cells 2x 3x 3

 FEWALD executed in parallel
    FEWALD:  cpu time    0.0095: real time    0.0096


----------------------------------------- Iteration    1(   1)  ---------------------------------------


    POTLOK:  cpu time    0.1493: real time    0.1510
    SETDIJ:  cpu time    0.0156: real time    0.0162
     EDDAV:  cpu time    6.2073: real time    6.2409
       DOS:  cpu time    0.0010: real time    0.0010
    --------------------------------------------
      LOOP:  cpu time    6.3760: real time    6.4175

 eigenvalue-minimisations  :  1472
 total energy-change (2. order) : 0.2571902E+04  (-0.2178282E+05)
 number of electron     579.0000000 magnetization 
 augmentation part      579.0000000 magnetization 

 Free energy of the ion-electron system (eV)
  ---------------------------------------------------
  alpha Z        PSCENC =       291.84107950
  Ewald energy   TEWEN  =      4191.00303869
  -Hartree energ DENC   =    -31851.05170905
  -exchange      EXHF   =         0.00000000
  -V(xc)+E(xc)   XCENC  =     -1123.04537368
  PAW double counting   =     23269.93929459   -20322.39320214
  entropy T*S    EENTRO =         0.00903566
  eigenvalues    EBANDS =      1848.57807107
  atomic energy  EATOM  =     26267.02126631
  Solvation  Ediel_sol  =         0.00000000
  ---------------------------------------------------
  free energy    TOTEN  =      2571.90150094 eV

  energy without entropy =     2571.89246528  energy(sigma->0) =     2571.89848905


--------------------------------------------------------------------------------------------------------




----------------------------------------- Iteration    1(   2)  ---------------------------------------


     EDDAV:  cpu time    7.5359: real time    7.5372
       DOS:  cpu time    0.0008: real time    0.0008
    --------------------------------------------
      LOOP:  cpu time    7.5381: real time    7.5429

 eigenvalue-minimisations  :  1920
 total energy-change (2. order) :-0.3040326E+04  (-0.2859899E+04)
 number of electron     579.0000000 magnetization 
 augmentation part      579.0000000 magnetization 

 Free energy of the ion-electron system (eV)
  ---------------------------------------------------
  alpha Z        PSCENC =       291.84107950
  Ewald energy   TEWEN  =      4191.00303869
  -Hartree energ DENC   =    -31851.05170905
  -exchange      EXHF   =         0.00000000
  -V(xc)+E(xc)   XCENC  =     -1123.04537368
  PAW double counting   =     23269.93929459   -20322.39320214
  entropy T*S    EENTRO =         0.00158658
  eigenvalues    EBANDS =     -1191.74082352
  atomic energy  EATOM  =     26267.02126631
  Solvation  Ediel_sol  =         0.00000000
  ---------------------------------------------------
  free energy    TOTEN  =      -468.42484273 eV

  energy without entropy =     -468.42642931  energy(sigma->0) =     -468.42537159


--------------------------------------------------------------------------------------------------------




----------------------------------------- Iteration    1(   3)  ---------------------------------------


     EDDAV:  cpu time    6.8682: real time    6.8684
       DOS:  cpu time    0.0008: real time    0.0008
    --------------------------------------------
      LOOP:  cpu time    6.8707: real time    6.8748

 eigenvalue-minimisations  :  1712
 total energy-change (2. order) :-0.3599106E+03  (-0.3551291E+03)
 number of electron     579.0000000 magnetization 
 augmentation part      579.0000000 magnetization 

 Free energy of the ion-electron system (eV)
  ---------------------------------------------------
  alpha Z        PSCENC =       291.84107950
  Ewald energy   TEWEN  =      4191.00303869
  -Hartree energ DENC   =    -31851.05170905
  -exchange      EXHF   =         0.00000000
  -V(xc)+E(xc)   XCENC  =     -1123.04537368
  PAW double counting   =     23269.93929459   -20322.39320214
  entropy T*S    EENTRO =        -0.02892546
  eigenvalues    EBANDS =     -1551.62096077
  atomic energy  EATOM  =     26267.02126631
  Solvation  Ediel_sol  =         0.00000000
  ---------------------------------------------------
  free energy    TOTEN  =      -828.33549203 eV

  energy without entropy =     -828.30656656  energy(sigma->0) =     -828.32585021


--------------------------------------------------------------------------------------------------------




----------------------------------------- Iteration    1(   4)  ---------------------------------------


     EDDAV:  cpu time    6.9449: real time    6.9464
       DOS:  cpu time    0.0012: real time    0.0012
    --------------------------------------------
      LOOP:  cpu time    6.9477: real time    6.9543

 eigenvalue-minimisations  :  1728
 total energy-change (2. order) :-0.8796340E+01  (-0.8721049E+01)
 number of electron     579.0000000 magnetization 
 augmentation part      579.0000000 magnetization 

 Free energy of the ion-electron system (eV)
  ---------------------------------------------------
  alpha Z        PSCENC =       291.84107950
  Ewald energy   TEWEN  =      4191.00303869
  -Hartree energ DENC   =    -31851.05170905
  -exchange      EXHF   =         0.00000000
  -V(xc)+E(xc)   XCENC  =     -1123.04537368
  PAW double counting   =     23269.93929459   -20322.39320214
  entropy T*S    EENTRO =        -0.03196034
  eigenvalues    EBANDS =     -1560.41426570
  atomic energy  EATOM  =     26267.02126631
  Solvation  Ediel_sol  =         0.00000000
  ---------------------------------------------------
  free energy    TOTEN  =      -837.13183183 eV

  energy without entropy =     -837.09987149  energy(sigma->0) =     -837.12117839


--------------------------------------------------------------------------------------------------------




----------------------------------------- Iteration    1(   5)  ---------------------------------------


     EDDAV:  cpu time    7.6262: real time    7.6272
       DOS:  cpu time    0.0009: real time    0.0009
    CHARGE:  cpu time    0.4103: real time    0.4105
    MIXING:  cpu time    0.0044: real time    0.0045
    --------------------------------------------
      LOOP:  cpu time    8.0437: real time    8.0501

 eigenvalue-minimisations  :  1888
 total energy-change (2. order) :-0.2739833E+00  (-0.2735710E+00)
 number of electron     579.0000055 magnetization 
 augmentation part       34.9120690 magnetization 

 Broyden mixing:
  rms(total) = 0.52478E+01    rms(broyden)= 0.52430E+01
  rms(prec ) = 0.60821E+01
  weight for this iteration     100.00

 Free energy of the ion-electron system (eV)
  ---------------------------------------------------
  alpha Z        PSCENC =       291.84107950
  Ewald energy   TEWEN  =      4191.00303869
  -Hartree energ DENC   =    -31851.05170905
  -exchange      EXHF   =         0.00000000
  -V(xc)+E(xc)   XCENC  =     -1123.04537368
  PAW double counting   =     23269.93929459   -20322.39320214
  entropy T*S    EENTRO =        -0.03186419
  eigenvalues    EBANDS =     -1560.68834517
  atomic energy  EATOM  =     26267.02126631
  Solvation  Ediel_sol  =         0.00000000
  ---------------------------------------------------
  free energy    TOTEN  =      -837.40581515 eV

  energy without entropy =     -837.37395096  energy(sigma->0) =     -837.39519375


--------------------------------------------------------------------------------------------------------




----------------------------------------- Iteration    1(   6)  ---------------------------------------


    POTLOK:  cpu time    0.1454: real time    0.1486
    SETDIJ:  cpu time    0.0146: real time    0.0155
    EDDIAG:  cpu time    1.0601: real time    1.0697
  RMM-DIIS:  cpu time    3.3241: real time    3.3540
    ORTHCH:  cpu time    0.2612: real time    0.2631
       DOS:  cpu time    0.0009: real time    0.0009
    CHARGE:  cpu time    0.3914: real time    0.3947
    MIXING:  cpu time    0.0046: real time    0.0047
    --------------------------------------------
      LOOP:  cpu time    5.2038: real time    5.2566

 eigenvalue-minimisations  :  1490
 total energy-change (2. order) : 0.7331261E+02  (-0.3941833E+02)
 number of electron     579.0000041 magnetization 
 augmentation part       25.8499963 magnetization 

 Broyden mixing:
  rms(total) = 0.37675E+01    rms(broyden)= 0.37610E+01
  rms(prec ) = 0.49488E+01
  weight for this iteration     100.00

 eigenvalues of (default mixing * dielectric matrix)
  average eigenvalue GAMMA=   0.6337
  0.6337

 Free energy of the ion-electron system (eV)
  ---------------------------------------------------
  alpha Z        PSCENC =       291.84107950
  Ewald energy   TEWEN  =      4191.00303869
  -Hartree energ DENC   =    -32837.79167779
  -exchange      EXHF   =         0.00000000
  -V(xc)+E(xc)   XCENC  =     -1064.12686595
  PAW double counting   =     30361.49506451   -27427.98189855
  entropy T*S    EENTRO =        -0.00178595
  eigenvalues    EBANDS =      -545.55142173
  atomic energy  EATOM  =     26267.02126631
  Solvation  Ediel_sol  =         0.00000000
  ---------------------------------------------------
  free energy    TOTEN  =      -764.09320096 eV

  energy without entropy =     -764.09141501  energy(sigma->0) =     -764.09260564


--------------------------------------------------------------------------------------------------------




----------------------------------------- Iteration    1(   7)  ---------------------------------------


    POTLOK:  cpu time    0.1437: real time    0.1470
    SETDIJ:  cpu time    0.0147: real time    0.0147
    EDDIAG:  cpu time    1.0837: real time    1.0947
  RMM-DIIS:  cpu time    3.3753: real time    3.4070
    ORTHCH:  cpu time    0.2580: real time    0.2599
       DOS:  cpu time    0.0008: real time    0.0008
    CHARGE:  cpu time    0.3891: real time    0.3924
    MIXING:  cpu time    0.0053: real time    0.0054
    --------------------------------------------
      LOOP:  cpu time    5.2727: real time    5.3296

 eigenvalue-minimisations  :  1517
 total energy-change (2. order) :-0.1141730E+02  (-0.8263086E+01)
 number of electron     579.0000045 magnetization 
 augmentation part       29.0842090 magnetization 

 Broyden mixing:
  rms(total) = 0.22798E+01    rms(broyden)= 0.22732E+01
  rms(prec ) = 0.35174E+01
  weight for this iteration     100.00

 eigenvalues of (default mixing * dielectric matrix)
  average eigenvalue GAMMA=   0.6600
  0.9231  0.3970

 Free energy of the ion-electron system (eV)
  ---------------------------------------------------
  alpha Z        PSCENC =       291.84107950
  Ewald energy   TEWEN  =      4191.00303869
  -Hartree energ DENC   =    -32598.25119124
  -exchange      EXHF   =         0.00000000
  -V(xc)+E(xc)   XCENC  =     -1068.65925627
  PAW double counting   =     32561.82529730   -29626.00159758
  entropy T*S    EENTRO =         0.01494740
  eigenvalues    EBANDS =      -794.30408083
  atomic energy  EATOM  =     26267.02126631
  Solvation  Ediel_sol  =         0.00000000
  ---------------------------------------------------
  free energy    TOTEN  =      -775.51049672 eV

  energy without entropy =     -775.52544412  energy(sigma->0) =     -775.51547919


--------------------------------------------------------------------------------------------------------




----------------------------------------- Iteration    1(   8)  ---------------------------------------


    POTLOK:  cpu time    0.1459: real time    0.1494
    SETDIJ:  cpu time    0.0147: real time    0.0156
    EDDIAG:  cpu time    1.0588: real time    1.0692
  RMM-DIIS:  cpu time    3.3282: real time    3.3598
    ORTHCH:  cpu time    0.2610: real time    0.2629
       DOS:  cpu time    0.0013: real time    0.0014
    CHARGE:  cpu time    0.3943: real time    0.3980
    MIXING:  cpu time    0.0048: real time    0.0048
    --------------------------------------------
      LOOP:  cpu time    5.2109: real time    5.2663

 eigenvalue-minimisations  :  1482
 total energy-change (2. order) : 0.1571527E+02  (-0.7264144E+00)
 number of electron     579.0000044 magnetization 
 augmentation part       28.3203112 magnetization 

 Broyden mixing:
  rms(total) = 0.16211E+01    rms(broyden)= 0.16206E+01
  rms(prec ) = 0.19841E+01
  weight for this iteration     100.00

 eigenvalues of (default mixing * dielectric matrix)
  average eigenvalue GAMMA=   0.7504
  0.8972  0.8972  0.4569

 Free energy of the ion-electron system (eV)
  ---------------------------------------------------
  alpha Z        PSCENC =       291.84107950
  Ewald energy   TEWEN  =      4191.00303869
  -Hartree energ DENC   =    -32750.27531639
  -exchange      EXHF   =         0.00000000
  -V(xc)+E(xc)   XCENC  =     -1063.97389090
  PAW double counting   =     34985.07885316   -32049.12263745
  entropy T*S    EENTRO =         0.00608092
  eigenvalues    EBANDS =      -631.37370552
  atomic energy  EATOM  =     26267.02126631
  Solvation  Ediel_sol  =         0.00000000
  ---------------------------------------------------
  free energy    TOTEN  =      -759.79523168 eV

  energy without entropy =     -759.80131260  energy(sigma->0) =     -759.79725866


--------------------------------------------------------------------------------------------------------




----------------------------------------- Iteration    1(   9)  ---------------------------------------


    POTLOK:  cpu time    0.1431: real time    0.1472
    SETDIJ:  cpu time    0.0148: real time    0.0151
    EDDIAG:  cpu time    1.0495: real time    1.0680
  RMM-DIIS:  cpu time    3.3431: real time    3.4166
    ORTHCH:  cpu time    0.2578: real time    0.2616
       DOS:  cpu time    0.0013: real time    0.0013
    CHARGE:  cpu time    0.3921: real time    0.3987
    MIXING:  cpu time    0.0057: real time    0.0058
    --------------------------------------------
      LOOP:  cpu time    5.2097: real time    5.3221

 eigenvalue-minimisations  :  1509
 total energy-change (2. order) : 0.4733387E+01  (-0.6632958E+00)
 number of electron     579.0000044 magnetization 
 augmentation part       28.3297589 magnetization 

 Broyden mixing:
  rms(total) = 0.10310E+01    rms(broyden)= 0.10308E+01
  rms(prec ) = 0.14460E+01
  weight for this iteration     100.00

 eigenvalues of (default mixing * dielectric matrix)
  average eigenvalue GAMMA=   0.8928
  1.6983  0.9869  0.4761  0.4101

 Free energy of the ion-electron system (eV)
  ---------------------------------------------------
  alpha Z        PSCENC =       291.84107950
  Ewald energy   TEWEN  =      4191.00303869
  -Hartree energ DENC   =    -32766.74024410
  -exchange      EXHF   =         0.00000000
  -V(xc)+E(xc)   XCENC  =     -1062.20578884
  PAW double counting   =     36251.87326663   -33315.59926590
  entropy T*S    EENTRO =         0.00533408
  eigenvalues    EBANDS =      -612.26053100
  atomic energy  EATOM  =     26267.02126631
  Solvation  Ediel_sol  =         0.00000000
  ---------------------------------------------------
  free energy    TOTEN  =      -755.06184464 eV

  energy without entropy =     -755.06717871  energy(sigma->0) =     -755.06362266


--------------------------------------------------------------------------------------------------------




----------------------------------------- Iteration    1(  10)  ---------------------------------------


    POTLOK:  cpu time    0.1470: real time    0.1503
    SETDIJ:  cpu time    0.0155: real time    0.0156
    EDDIAG:  cpu time    1.0574: real time    1.0663
  RMM-DIIS:  cpu time    3.3094: real time    3.3379
    ORTHCH:  cpu time    0.2637: real time    0.2655
       DOS:  cpu time    0.0009: real time    0.0009
    CHARGE:  cpu time    0.3898: real time    0.3932
    MIXING:  cpu time    0.0054: real time    0.0054
    --------------------------------------------
      LOOP:  cpu time    5.1909: real time    5.2410

 eigenvalue-minimisations  :  1483
 total energy-change (2. order) :-0.2489691E+01  (-0.9020441E+00)
 number of electron     579.0000035 magnetization 
 augmentation part       26.3933480 magnetization 

 Broyden mixing:
  rms(total) = 0.26172E+01    rms(broyden)= 0.26130E+01
  rms(prec ) = 0.35501E+01
  weight for this iteration     100.00

 eigenvalues of (default mixing * dielectric matrix)
  average eigenvalue GAMMA=   0.7953
  1.8812  1.0060  0.4046  0.4046  0.2801

 Free energy of the ion-electron system (eV)
  ---------------------------------------------------
  alpha Z        PSCENC =       291.84107950
  Ewald energy   TEWEN  =      4191.00303869
  -Hartree energ DENC   =    -32849.15818223
  -exchange      EXHF   =         0.00000000
  -V(xc)+E(xc)   XCENC  =     -1057.33579724
  PAW double counting   =     39061.55541458   -36124.68894761
  entropy T*S    EENTRO =        -0.00923564
  eigenvalues    EBANDS =      -537.78017221
  atomic energy  EATOM  =     26267.02126631
  Solvation  Ediel_sol  =         0.00000000
  ---------------------------------------------------
  free energy    TOTEN  =      -757.55153586 eV

  energy without entropy =     -757.54230022  energy(sigma->0) =     -757.54845732


--------------------------------------------------------------------------------------------------------




----------------------------------------- Iteration    1(  11)  ---------------------------------------


    POTLOK:  cpu time    0.1444: real time    0.1475
    SETDIJ:  cpu time    0.0146: real time    0.0146
    EDDIAG:  cpu time    1.0604: real time    1.0691
  RMM-DIIS:  cpu time    3.3430: real time    3.3727
    ORTHCH:  cpu time    0.2595: real time    0.2617
       DOS:  cpu time    0.0012: real time    0.0012
    CHARGE:  cpu time    0.3661: real time    0.3691
    MIXING:  cpu time    0.0056: real time    0.0056
    --------------------------------------------
      LOOP:  cpu time    5.1970: real time    5.2490

 eigenvalue-minimisations  :  1487
 total energy-change (2. order) : 0.3133421E+01  (-0.2320759E+00)
 number of electron     579.0000049 magnetization 
 augmentation part       26.9654634 magnetization 

 Broyden mixing:
  rms(total) = 0.18613E+01    rms(broyden)= 0.18547E+01
  rms(prec ) = 0.23843E+01
  weight for this iteration     100.00

 eigenvalues of (default mixing * dielectric matrix)
  average eigenvalue GAMMA=   0.7905
  2.1716  1.0243  0.5418  0.5418  0.3381  0.1252

 Free energy of the ion-electron system (eV)
  ---------------------------------------------------
  alpha Z        PSCENC =       291.84107950
  Ewald energy   TEWEN  =      4191.00303869
  -Hartree energ DENC   =    -32849.15895262
  -exchange      EXHF   =         0.00000000
  -V(xc)+E(xc)   XCENC  =     -1057.14680493
  PAW double counting   =     39690.31458313   -36753.16803228
  entropy T*S    EENTRO =         0.01126822
  eigenvalues    EBANDS =      -535.13556133
  atomic energy  EATOM  =     26267.02126631
  Solvation  Ediel_sol  =         0.00000000
  ---------------------------------------------------
  free energy    TOTEN  =      -754.41811531 eV

  energy without entropy =     -754.42938353  energy(sigma->0) =     -754.42187139


--------------------------------------------------------------------------------------------------------




----------------------------------------- Iteration    1(  12)  ---------------------------------------


    POTLOK:  cpu time    0.1464: real time    0.1484
    SETDIJ:  cpu time    0.0158: real time    0.0158
    EDDIAG:  cpu time    1.0608: real time    1.0610
  RMM-DIIS:  cpu time    3.3572: real time    3.3577
    ORTHCH:  cpu time    0.2649: real time    0.2649
       DOS:  cpu time    0.0009: real time    0.0009
    CHARGE:  cpu time    0.4016: real time    0.4018
    MIXING:  cpu time    0.0058: real time    0.0058
    --------------------------------------------
      LOOP:  cpu time    5.2555: real time    5.2621

 eigenvalue-minimisations  :  1486
 total energy-change (2. order) : 0.2013195E+01  (-0.2619440E+00)
 number of electron     579.0000045 magnetization 
 augmentation part       27.8341184 magnetization 

 Broyden mixing:
  rms(total) = 0.38105E+00    rms(broyden)= 0.36475E+00
  rms(prec ) = 0.49191E+00
  weight for this iteration     100.00

 eigenvalues of (default mixing * dielectric matrix)
  average eigenvalue GAMMA=   0.7290
  2.1861  1.0089  0.5822  0.5822  0.3663  0.2273  0.1500

 Free energy of the ion-electron system (eV)
  ---------------------------------------------------
  alpha Z        PSCENC =       291.84107950
  Ewald energy   TEWEN  =      4191.00303869
  -Hartree energ DENC   =    -32838.34824077
  -exchange      EXHF   =         0.00000000
  -V(xc)+E(xc)   XCENC  =     -1057.23290398
  PAW double counting   =     40174.07001217   -37236.64683832
  entropy T*S    EENTRO =        -0.00233658
  eigenvalues    EBANDS =      -544.10999704
  atomic energy  EATOM  =     26267.02126631
  Solvation  Ediel_sol  =         0.00000000
  ---------------------------------------------------
  free energy    TOTEN  =      -752.40492003 eV

  energy without entropy =     -752.40258345  energy(sigma->0) =     -752.40414117


--------------------------------------------------------------------------------------------------------




----------------------------------------- Iteration    1(  13)  ---------------------------------------


    POTLOK:  cpu time    0.1466: real time    0.1491
    SETDIJ:  cpu time    0.0150: real time    0.0158
    EDDIAG:  cpu time    1.0614: real time    1.0704
  RMM-DIIS:  cpu time    3.3498: real time    3.3803
    ORTHCH:  cpu time    0.2610: real time    0.2629
       DOS:  cpu time    0.0011: real time    0.0012
    CHARGE:  cpu time    0.3958: real time    0.3991
    MIXING:  cpu time    0.0055: real time    0.0056
    --------------------------------------------
      LOOP:  cpu time    5.2384: real time    5.2913

 eigenvalue-minimisations  :  1513
 total energy-change (2. order) :-0.1990571E+00  (-0.7152488E-01)
 number of electron     579.0000044 magnetization 
 augmentation part       28.0577933 magnetization 

 Broyden mixing:
  rms(total) = 0.47404E+00    rms(broyden)= 0.47180E+00
  rms(prec ) = 0.67036E+00
  weight for this iteration     100.00

 eigenvalues of (default mixing * dielectric matrix)
  average eigenvalue GAMMA=   0.7630
  2.3211  0.9753  0.9753  0.4513  0.4513  0.4635  0.3255  0.1409

 Free energy of the ion-electron system (eV)
  ---------------------------------------------------
  alpha Z        PSCENC =       291.84107950
  Ewald energy   TEWEN  =      4191.00303869
  -Hartree energ DENC   =    -32833.77539595
  -exchange      EXHF   =         0.00000000
  -V(xc)+E(xc)   XCENC  =     -1057.03722652
  PAW double counting   =     40318.69613676   -37381.18505361
  entropy T*S    EENTRO =        -0.00334367
  eigenvalues    EBANDS =      -549.16447860
  atomic energy  EATOM  =     26267.02126631
  Solvation  Ediel_sol  =         0.00000000
  ---------------------------------------------------
  free energy    TOTEN  =      -752.60397710 eV

  energy without entropy =     -752.60063342  energy(sigma->0) =     -752.60286254


--------------------------------------------------------------------------------------------------------




----------------------------------------- Iteration    1(  14)  ---------------------------------------


    POTLOK:  cpu time    0.1448: real time    0.1480
    SETDIJ:  cpu time    0.0142: real time    0.0150
    EDDIAG:  cpu time    1.0608: real time    1.0695
  RMM-DIIS:  cpu time    3.2779: real time    3.3058
    ORTHCH:  cpu time    0.2623: real time    0.2643
       DOS:  cpu time    0.0009: real time    0.0009
    CHARGE:  cpu time    0.3946: real time    0.3977
    MIXING:  cpu time    0.0059: real time    0.0060
    --------------------------------------------
      LOOP:  cpu time    5.1631: real time    5.2125

 eigenvalue-minimisations  :  1479
 total energy-change (2. order) : 0.2036989E+00  (-0.1377547E-01)
 number of electron     579.0000044 magnetization 
 augmentation part       27.9217904 magnetization 

 Broyden mixing:
  rms(total) = 0.35676E+00    rms(broyden)= 0.35629E+00
  rms(prec ) = 0.48550E+00
  weight for this iteration     100.00

 eigenvalues of (default mixing * dielectric matrix)
  average eigenvalue GAMMA=   0.8166
  2.3497  1.6538  0.9919  0.6013  0.4866  0.4866  0.3424  0.2954  0.1415

 Free energy of the ion-electron system (eV)
  ---------------------------------------------------
  alpha Z        PSCENC =       291.84107950
  Ewald energy   TEWEN  =      4191.00303869
  -Hartree energ DENC   =    -32841.36779594
  -exchange      EXHF   =         0.00000000
  -V(xc)+E(xc)   XCENC  =     -1056.37819352
  PAW double counting   =     40438.29814154   -37500.80246070
  entropy T*S    EENTRO =        -0.00759550
  eigenvalues    EBANDS =      -542.00775861
  atomic energy  EATOM  =     26267.02126631
  Solvation  Ediel_sol  =         0.00000000
  ---------------------------------------------------
  free energy    TOTEN  =      -752.40027823 eV

  energy without entropy =     -752.39268273  energy(sigma->0) =     -752.39774639


--------------------------------------------------------------------------------------------------------




----------------------------------------- Iteration    1(  15)  ---------------------------------------


    POTLOK:  cpu time    0.1441: real time    0.1485
    SETDIJ:  cpu time    0.0144: real time    0.0146
    EDDIAG:  cpu time    1.0459: real time    1.0642
  RMM-DIIS:  cpu time    3.2242: real time    3.2755
    ORTHCH:  cpu time    0.2563: real time    0.2582
       DOS:  cpu time    0.0011: real time    0.0011
    CHARGE:  cpu time    0.3867: real time    0.3900
    MIXING:  cpu time    0.0063: real time    0.0063
    --------------------------------------------
      LOOP:  cpu time    5.0812: real time    5.1654

 eigenvalue-minimisations  :  1472
 total energy-change (2. order) : 0.1495000E+00  (-0.1022020E-01)
 number of electron     579.0000044 magnetization 
 augmentation part       27.7559772 magnetization 

 Broyden mixing:
  rms(total) = 0.22100E+00    rms(broyden)= 0.21858E+00
  rms(prec ) = 0.25282E+00
  weight for this iteration     100.00

 eigenvalues of (default mixing * dielectric matrix)
  average eigenvalue GAMMA=   0.7597
  2.3643  1.7879  0.9843  0.5960  0.4890  0.4890  0.3421  0.2959  0.1416  0.1072

 Free energy of the ion-electron system (eV)
  ---------------------------------------------------
  alpha Z        PSCENC =       291.84107950
  Ewald energy   TEWEN  =      4191.00303869
  -Hartree energ DENC   =    -32847.62633208
  -exchange      EXHF   =         0.00000000
  -V(xc)+E(xc)   XCENC  =     -1055.95242983
  PAW double counting   =     40382.17788109   -37444.71434234
  entropy T*S    EENTRO =         0.00836106
  eigenvalues    EBANDS =      -536.00930059
  atomic energy  EATOM  =     26267.02126631
  Solvation  Ediel_sol  =         0.00000000
  ---------------------------------------------------
  free energy    TOTEN  =      -752.25077820 eV

  energy without entropy =     -752.25913926  energy(sigma->0) =     -752.25356522


--------------------------------------------------------------------------------------------------------




----------------------------------------- Iteration    1(  16)  ---------------------------------------


    POTLOK:  cpu time    0.1434: real time    0.1475
    SETDIJ:  cpu time    0.0146: real time    0.0149
    EDDIAG:  cpu time    1.0484: real time    1.0662
  RMM-DIIS:  cpu time    2.7667: real time    2.8171
    ORTHCH:  cpu time    0.2575: real time    0.2619
       DOS:  cpu time    0.0009: real time    0.0009
    CHARGE:  cpu time    0.3877: real time    0.3946
    MIXING:  cpu time    0.0077: real time    0.0081
    --------------------------------------------
      LOOP:  cpu time    4.6288: real time    4.7165

 eigenvalue-minimisations  :  1219
 total energy-change (2. order) : 0.2538176E-01  (-0.1627800E-02)
 number of electron     579.0000044 magnetization 
 augmentation part       27.7469507 magnetization 

 Broyden mixing:
  rms(total) = 0.18902E+00    rms(broyden)= 0.18888E+00
  rms(prec ) = 0.21089E+00
  weight for this iteration     100.00

 eigenvalues of (default mixing * dielectric matrix)
[...]
   0.343E+02 0.201E+02 0.398E+03   -.350E+02 -.209E+02 -.397E+03   0.638E+00 0.707E+00 -.218E+01   -.619E-02 -.555E-01 0.946E-03
   0.948E+01 -.424E+02 0.412E+03   -.989E+01 0.437E+02 -.411E+03   0.368E+00 -.125E+01 -.232E+01   -.572E-02 -.186E-01 -.747E-02
   0.323E+02 0.273E+02 0.385E+03   -.329E+02 -.282E+02 -.384E+03   0.496E+00 0.982E+00 -.878E+00   0.452E-03 -.280E-01 0.403E-01
   0.490E+01 -.395E+02 0.388E+03   -.518E+01 0.407E+02 -.387E+03   0.234E+00 -.108E+01 -.153E+01   0.444E-02 -.535E-01 0.198E-01
   -.401E+02 0.368E+01 0.399E+03   0.408E+02 -.424E+01 -.398E+03   -.488E+00 0.705E+00 -.182E+01   0.186E-02 -.505E-01 0.229E-01
   -.300E+02 0.243E+02 0.397E+03   0.315E+02 -.242E+02 -.396E+03   -.155E+01 -.340E+00 -.185E+01   -.525E-02 -.321E-01 0.357E-01
   0.205E+02 0.342E+02 0.412E+03   -.218E+02 -.351E+02 -.410E+03   0.150E+01 0.710E+00 -.255E+01   -.413E-03 0.206E-01 0.518E-02
   -.674E+00 -.348E+02 0.390E+03   -.159E+00 0.358E+02 -.390E+03   0.107E+01 -.943E+00 -.984E+00   0.399E-02 -.325E-01 0.275E-01
   0.340E+02 0.382E+00 -.227E+03   -.551E+02 -.907E+01 0.228E+03   0.212E+02 0.110E+02 -.117E+01   0.515E-02 0.215E-01 0.382E-01
   0.301E+02 -.847E+02 -.193E+03   -.262E+02 0.108E+03 0.195E+03   -.253E+01 -.240E+02 -.282E+01   -.779E-02 -.132E-01 0.124E-01
   0.286E+02 0.926E+01 -.167E+03   -.792E+01 -.231E+02 0.169E+03   -.240E+02 0.124E+02 -.348E+01   -.182E-02 0.490E-01 0.107E-01
   -.501E+02 0.211E+02 -.227E+03   0.676E+02 -.347E+02 0.227E+03   -.194E+02 0.124E+02 0.102E+00   0.250E-01 -.420E-01 0.304E-01
   0.121E+00 0.383E+02 -.216E+03   -.238E+02 -.467E+02 0.217E+03   0.248E+02 0.105E+02 -.247E+01   0.523E-01 -.389E-01 -.627E-01
   0.107E+02 -.445E+02 -.233E+03   -.667E+01 0.681E+02 0.233E+03   -.242E+01 -.253E+02 -.692E+00   0.289E-01 -.374E-01 0.109E-01
   0.231E+01 0.572E+02 -.224E+03   0.178E+02 -.710E+02 0.226E+03   -.230E+02 0.125E+02 -.348E+01   -.568E-01 -.515E-01 -.132E-01
   -.328E+02 -.543E+02 -.194E+03   0.348E+02 0.773E+02 0.197E+03   0.541E+00 -.242E+02 -.391E+01   -.225E-01 -.185E-01 0.611E-02
   0.861E+02 0.300E+02 -.227E+03   -.106E+03 -.385E+02 0.227E+03   0.193E+02 0.108E+02 -.448E+00   -.163E-01 -.222E-01 0.512E-01
   -.732E+02 0.799E+02 -.229E+03   0.913E+02 -.937E+02 0.229E+03   -.203E+02 0.126E+02 -.105E+01   0.224E-01 0.608E-01 -.189E-01
   0.222E+02 0.154E+02 -.135E+03   -.452E+02 -.236E+02 0.137E+03   0.241E+02 0.992E+01 -.290E+01   0.135E-02 0.545E-01 0.172E-01
   -.549E+02 -.417E+02 -.206E+03   0.578E+02 0.644E+02 0.207E+03   -.894E+00 -.243E+02 -.163E+01   0.176E-02 0.380E-01 0.111E-01
   -.553E+02 0.677E+02 -.127E+03   0.732E+02 -.802E+02 0.129E+03   -.201E+02 0.107E+02 -.423E+01   0.299E-02 0.944E-02 0.326E-01
   0.749E+02 -.284E+02 -.124E+03   -.980E+02 0.181E+02 0.127E+03   0.240E+02 0.138E+02 -.551E+01   0.515E-01 -.451E-01 -.308E-02
   -.798E+02 -.971E+02 -.179E+03   0.820E+02 0.119E+03 0.178E+03   0.122E+00 -.233E+02 -.422E+00   0.493E-02 -.440E-01 0.415E-01
   -.567E+02 -.511E+02 -.806E+02   0.592E+02 0.723E+02 0.826E+02   -.291E+00 -.220E+02 -.435E+01   -.745E-02 0.111E+00 -.776E-01
   0.136E+03 -.119E+02 -.167E+03   -.157E+03 0.983E+00 0.169E+03   0.209E+02 0.143E+02 -.212E+01   -.238E-01 0.486E-01 -.120E-01
   -.725E+01 0.982E+02 -.104E+03   0.272E+02 -.112E+03 0.109E+03   -.229E+02 0.121E+02 -.881E+01   -.836E-01 -.658E-01 -.350E-01
   -.557E+02 0.344E+02 -.599E+03   0.490E+02 -.416E+02 0.609E+03   0.643E+01 0.796E+01 -.988E+01   -.622E-01 0.845E-02 -.354E-01
   -.135E+03 0.189E+02 -.575E+03   0.134E+03 -.188E+02 0.573E+03   0.223E+01 0.960E+00 0.320E+01   0.455E-01 0.174E-03 -.223E-02
   0.114E+03 -.131E+01 -.614E+03   -.119E+03 -.169E+02 0.625E+03   0.405E+01 0.218E+02 -.115E+02   0.104E-01 -.755E-02 -.152E-01
   -.404E+02 -.108E+03 -.566E+03   0.359E+02 0.106E+03 0.566E+03   0.588E+01 0.291E+01 0.910E+00   0.710E-01 0.168E+00 -.141E+00
   -.284E+02 -.770E+01 -.447E+03   0.442E+02 0.148E+02 0.452E+03   -.157E+02 -.813E+01 -.561E+01   0.889E-02 0.102E+00 -.143E-01
   -.358E+02 0.126E+03 -.598E+03   0.497E+02 -.123E+03 0.609E+03   -.163E+02 -.506E+01 -.123E+02   -.104E+00 -.153E+00 -.644E-02
   -.304E+03 -.455E+02 -.563E+03   0.350E+03 0.675E+02 0.567E+03   -.417E+02 -.221E+02 -.426E+01   -.160E-01 0.155E+00 -.209E-01
   0.201E+03 0.113E+02 -.494E+03   -.236E+03 -.271E+02 0.494E+03   0.319E+02 0.166E+02 0.148E+01   -.275E-01 0.153E+00 -.229E-01
   0.117E+03 -.601E+02 -.627E+03   -.121E+03 0.629E+02 0.638E+03   0.307E+01 -.300E+01 -.102E+02   0.327E-01 0.899E-01 -.946E-01
   0.454E+02 -.132E+03 -.569E+03   -.517E+02 0.118E+03 0.576E+03   0.546E+01 0.179E+02 -.727E+01   0.251E-01 0.609E-01 -.322E-01
   -.141E+03 0.130E+03 -.576E+03   0.136E+03 -.144E+03 0.590E+03   0.901E+01 0.147E+02 -.128E+02   -.658E-01 -.207E-01 0.307E-01
   0.184E+03 0.206E+02 -.589E+03   -.185E+03 -.144E+02 0.609E+03   -.819E+00 -.691E+01 -.203E+02   -.591E-01 -.574E-01 -.488E-01
   0.125E+03 0.328E+02 -.599E+03   -.143E+03 -.194E+02 0.605E+03   0.197E+02 -.157E+02 -.344E+01   0.306E-01 -.114E+00 -.636E-01
 -----------------------------------------------------------------------------------------------
   -.193E+02 -.215E+02 0.176E+03   -.114E-12 -.206E-12 -.421E-11   0.194E+02 0.210E+02 -.176E+03   -.446E-01 0.460E+00 0.376E-01
 
 
 POSITION                                       TOTAL-FORCE (eV/Angst)
 -----------------------------------------------------------------------------------
      7.02360      9.89091     13.08926        -0.054475      0.002595      0.222628
      0.00000     12.32390     13.10064         0.025278     -0.059320     -0.147723
      1.40472      9.89091     13.08926         0.129843      0.044302      0.308798
      5.61888     12.32390     13.10064         0.100998      0.057409      0.195008
      4.21416      9.89091     13.08926        -0.124054      0.047498     -0.129742
      2.80944     12.32390     13.10064        -0.124918      0.028682      0.268750
      5.73344     12.16521      1.43616         0.027216     -0.019580      0.330137
      0.11457     12.16521      3.12666         0.339684     -0.444947     -0.859401
      1.51928      0.00000      1.43616        -0.104884      0.001925      0.445138
      4.32872      0.00000      3.12666        -0.257119      0.289976     -1.703650
      5.73344      2.43304      1.43616         0.006375      0.005675      0.342646
      1.51928      4.86606      1.43616        -0.028070     -0.003337      0.483790
      4.32872      4.86606      3.12666        -0.392375     -0.120954     -1.127594
      0.11457      2.43304      3.12666         0.355505      0.006876     -1.527848
      5.73344      7.29910      1.43616        -0.035950     -0.043396      0.280422
      1.51928      9.73212      1.43616        -0.114715     -0.006582      0.525945
      4.32872      9.73212      3.12666        -0.220045      0.166394     -1.954651
      0.11457      7.29910      3.12666         0.384743      0.051601     -1.558379
      0.11457      2.43304      5.41885         2.241152     -1.637094      5.272534
      7.13816      4.86606      3.61778         0.034866      0.255918     -3.251423
      4.32872      9.73212      5.41885        -0.800752      0.323939      4.263925
      2.92401      7.29910      3.61778        -0.648570     -0.624048     -3.080992
      0.11457      7.29910      5.41885         2.889927      0.231296      7.050139
      4.32872      0.00000      5.41885        -0.050270      1.185467      4.492487
      4.32872      4.86606      5.41885        -1.689201     -1.276230      4.819734
      0.11457     12.16521      5.41885        -0.056548     -3.117961      6.070566
      5.57596      2.38975      7.40375         0.558107     -0.834315      0.259050
      4.22028      4.99340      8.23672        -1.454350     -0.892834     -0.928269
      5.68040      7.16099      7.49814         1.312827     -0.270012      0.043176
      4.85627     13.52433      7.89359         0.435831     -0.390763      0.153493
      4.36717      9.83760      8.38393        -0.055340      0.467475     -0.750143
      2.92401      7.29910      5.91004        -2.557851     -2.051712      3.302353
      2.92401     12.16521      5.91004        -2.421448     -0.701863      3.905358
      2.92401      2.43304      5.91004        -1.476614     -0.557954      4.355352
      7.13816      9.73214      5.91004         3.933976      2.544550      5.023718
      7.13816      9.73214      3.61778         1.030039      0.555493     -2.964606
      2.92401     12.16521      3.61778        -0.850334      0.044735     -3.074067
      2.92401      2.43304      3.61778         0.030856      0.201127     -2.755292
      7.13816      0.00000      3.61778         0.212543     -0.107654     -3.171713
      7.13816      4.86606      5.91004        -0.739133      0.037892      3.265699
      2.92401     12.16521      0.94496        -0.254526      0.207085      0.973730
      2.92401      2.43304      0.94496        -0.205234      0.163180      0.787582
      2.92401      7.29910      0.94496        -0.170729      0.146905      0.871157
      7.13816      4.86606      0.94496        -0.073667      0.100078      0.695056
      7.13816      9.73214      0.94496        -0.073520      0.123451      0.819465
      7.13816      0.00000      0.94496        -0.052060      0.274448      0.897439
      7.13816      0.00000      5.91004         0.512520     -0.084937      3.605083
      0.00000      0.98037     10.72023         0.038330     -0.044927     -0.654486
      4.21416      3.41341     10.73176         0.004285     -0.075923     -0.599339
      0.00000      5.84643     10.74303         0.041716      0.120352     -0.226221
      4.21416      8.27947     10.75441        -0.243350     -0.058390      0.029212
      0.00000     10.71249     10.76585         0.056160      0.050752     -0.308005
      4.21416     13.14550     10.77725         0.131143      0.036498     -0.698347
      5.61888      0.98037     10.72023         0.007633      0.128821     -0.611968
      1.40472      3.41341     10.73176        -0.127037     -0.137944     -0.191173
      5.61888      5.84643     10.74303         0.098089      0.073465     -0.763200
      1.40472      8.27947     10.75441        -0.185081     -0.098095     -0.265353
      5.61888     10.71249     10.76585         0.096313      0.327640     -0.049264
      1.40472     13.14550     10.77725        -0.303093     -0.054457     -0.786205
      2.80944      0.98037     10.72023        -0.089308      0.208873     -0.099403
      7.02360      3.41341     10.73176         0.081502     -0.047824     -0.367859
      0.00000     13.93540     15.43532         0.572314     -0.079559     -0.436342
      2.80944      5.84643     10.74303        -0.158511      0.101730     -0.397058
      7.02360      8.27947     10.75441         0.120608      0.010844     -0.263243
      4.21416     11.50230     15.42404         0.435182     -0.199027     -0.323651
      2.80944     10.71249     10.76585         0.000993      0.003882     -0.461896
      0.00000      9.06931     15.41267         0.536621     -0.180076     -0.293560
      7.02360     13.14550     10.77725         0.256520     -0.017369     -0.777548
      4.21416      6.63627     15.40124         0.388550     -0.157985     -0.242844
      0.00000      4.20325     15.38987         0.456800     -0.152332     -0.215661
      4.21416      1.77021     15.37844         0.370018     -0.204326     -0.200144
      5.61888     13.93540     15.43532        -0.198774     -0.164410     -0.192030
      1.40472     11.50230     15.42404        -0.160758     -0.173181     -0.102476
      5.61888      9.06931     15.41267        -0.193399     -0.207403     -0.025700
      1.40472      6.63627     15.40124        -0.173200     -0.180446     -0.085314
      5.61888      4.20325     15.38987        -0.080258     -0.161570      0.022939
      1.40472      1.77021     15.37844        -0.156209     -0.156017     -0.004641
      2.80944     13.93540     15.43532        -0.193382      0.299100     -0.015491
      7.02360     11.50230     15.42404        -0.189292      0.196141      0.062408
      2.80944      9.06931     15.41267        -0.184173      0.168116      0.115642
      7.02360      6.63627     15.40124        -0.157647      0.179645      0.170454
      2.80944      4.20325     15.38987        -0.241981      0.235874      0.109201
      4.21416      0.15878     13.04364        -0.054318     -0.146324      0.123356
      7.02360      0.15878     13.04364        -0.105722     -0.038265      0.371162
      1.40472      0.15878     13.04364         0.185280     -0.032471      0.470567
      7.02360      1.77021     15.37844        -0.142197      0.195700      0.234608
      5.61888      2.59181     13.05507         0.123056      0.052860      0.152785
      0.00000      2.59181     13.05507         0.005271      0.027945     -0.138998
      2.80944      2.59181     13.05507        -0.159752      0.072102      0.159899
      7.02360      5.02485     13.06646         0.028034      0.044686      0.158473
      1.40472      5.02485     13.06646         0.073729      0.032329      0.262686
      5.61888      7.45787     13.07783         0.151634     -0.001780      0.292898
      0.00000      7.45787     13.07783         0.005837     -0.144685     -0.155584
      4.21416      5.02485     13.06646        -0.093325     -0.040165     -0.054547
      2.80944      7.45787     13.07783        -0.097123      0.009119      0.204333
      5.84801     13.85330      2.28137        -0.108802     -0.039824     -0.576568
      7.13816     11.22190      2.28137        -0.311118      0.097629     -1.015578
      4.21415     11.42030      2.28137         0.163452     -0.073303     -0.514066
      0.00000     13.85330      2.28137        -0.020960     -0.071650     -0.744729
      1.63386      1.68817      2.28137        -0.052780     -0.067634     -0.757069
      2.92401     13.65489      2.28137         0.152315     -0.012340     -0.661006
      5.84801      4.12120      2.28137         0.028430     -0.005096     -0.663589
      7.13816      1.48973      2.28137        -0.060941      0.111816     -0.666950
      4.21415      1.68818      2.28137         0.125844     -0.068698     -0.871585
      0.00000      4.12120      2.28137        -0.042008     -0.122345     -0.559590
      1.63386      6.55424      2.28137        -0.082357     -0.113132     -0.883928
      2.92401      3.92276      2.28137        -0.041768      0.004615     -0.937032
      5.84801      8.98727      2.28137        -0.124700      0.009196     -0.422329
      7.13816      6.35579      2.28137        -0.043432      0.062496     -0.700429
      4.21415      6.55424      2.28137         0.213173      0.099043     -0.768865
      0.00000      8.98727      2.28137        -0.081734     -0.219181     -0.766905
      1.63386     11.42030      2.28137         0.165036     -0.108322     -0.971428
      2.92401      8.78882      2.28137         0.240529      0.073399     -0.485549
      7.25273      3.17790      4.46307         0.150727      2.340321     -0.433483
      1.40472      3.17790      4.46307         1.365776     -1.192079     -1.201575
      0.11457      0.94331      4.46307        -3.337321     -1.446920     -1.346445
      4.32872      8.24241      4.46307        -1.938745     -1.256368     -0.024242
      3.03858     10.47700      4.46307         1.106333      2.067315     -0.752503
      5.61887     10.47700      4.46307         1.600487     -1.702649     -0.101196
      0.11457      5.80937      4.46307        -2.874348     -1.329488     -1.157267
      1.40472      8.04397      4.46307         2.485848     -1.163667     -1.606694
      7.25273      8.04397      4.46307        -0.402717      2.240848     -0.409361
      4.32872     13.10850      4.46307        -2.094442     -1.121555     -0.384123
      3.03858      0.74487      4.46307         1.151585      1.784840     -1.395036
      5.61887      0.74487      4.46307         1.961407     -1.503317     -0.786220
      4.32872      3.37634      4.46307        -2.252208     -1.803062     -2.188816
      3.03858      5.61093      4.46307         0.878948      3.360781     -2.190733
      5.61887      5.61093      4.46307         2.394074     -1.201427     -0.643406
      1.40472     12.91001      4.46307         2.154891     -0.658908     -2.472604
      7.25273     12.91001      4.46307        -0.071413      3.519461     -0.674495
      0.11457     10.67540      4.46307        -3.063443     -1.436370     -3.531430
      4.27604      1.31377      6.79656        -0.353237      0.791268     -0.682014
      5.59185      3.91638      6.50244         0.897572      1.098984      1.189782
      1.56350      6.27123      6.56027        -0.977274      3.585938     -0.388116
      4.20564      6.24340      6.76887         1.520331      1.890092      0.803984
      5.80474      8.79211      8.18208         0.106356     -0.883243     -0.464929
      0.45021      9.30408      6.67313        -2.510405     -2.309805     -0.746671
      1.75333     13.82470      6.78406         4.174101      0.146942      0.162836
      0.54236     13.46920      6.80953        -3.977511      0.976266      1.264660
     -0.07765     13.79544      8.33610        -0.202215     -0.118803      0.836171
      1.56328      1.19410      6.40203        -0.862221      4.802741      0.516913
      1.39672     11.27330      6.36805         3.335163      0.222008      1.314985
      7.40570     11.41300      6.65997        -2.484252     -0.806362     -0.231279
      2.89934      4.19028      6.45375         1.946709     -2.392456      2.412562
 -----------------------------------------------------------------------------------
    total drift:                                0.016177      0.021839      0.038664


--------------------------------------------------------------------------------------------------------



  FREE ENERGIE OF THE ION-ELECTRON SYSTEM (eV)
  ---------------------------------------------------
  free  energy   TOTEN  =      -755.95695993 eV

  energy  without entropy=     -755.94745649  energy(sigma->0) =     -755.95379212
 
 d Force = 0.1233405E+02[-0.151E+01, 0.262E+02]  d Energy = 0.7827045E+01 0.451E+01
 d Force = 0.5290774E+03[ 0.460E+03, 0.598E+03]  d Ewald  = 0.5312930E+03-0.222E+01


--------------------------------------------------------------------------------------------------------


    POTLOK:  cpu time    0.1478: real time    0.1577


--------------------------------------------------------------------------------------------------------




--------------------------------------------------------------------------------------------------------


  
 reached required accuracy - stopping structural energy minimisation
     LOOP+:  cpu time   57.0723: real time   58.8823
    4ORBIT:  cpu time    0.0000: real time    0.0000

 total amount of memory used by VASP on root node    88518. kBytes
========================================================================

   base      :      30000. kBytes
   nonlr-proj:      19399. kBytes
   fftplans  :       9736. kBytes
   grid      :      15178. kBytes
   one-center:        110. kBytes
   wavefun   :      14095. kBytes
 
  
  
 General timing and accounting informations for this job:
 ========================================================
  
                  Total CPU time used (sec):      349.036
                            User time (sec):      347.130
                          System time (sec):        1.906
                         Elapsed time (sec):      354.022
  
                   Maximum memory used (kb):      301888.
                   Average memory used (kb):           0.
  
                          Minor page faults:       348845
                          Major page faults:           23
                 Voluntary context switches:         5421
