<?xml version="1.0" encoding="ISO-8859-1"?>
<modeling>
 <generator>
  <i name="program" type="string">vasp </i>
  <i name="version" type="string">5.4.1  </i>
  <i name="subversion" type="string">05Feb16 (build Feb 01 2017 11:31:40) complex                          parallel </i>
  <i name="platform" type="string">IFC91_ompi </i>
  <i name="date" type="string">2021 07 07 </i>
  <i name="time" type="string">11:22:25 </i>
 </generator>
 <incar>
  <i type="string" name="SYSTEM">Al_Al2O3</i>
  <i type="string" name="PREC">accurate</i>
  <i type="string" name="ALGO"> Fast</i>
  <i type="int" name="NELM">   100</i>
  <i type="int" name="IBRION">     2</i>
  <i name="EDIFF">      0.00100000</i>
  <i type="int" name="NSW">   100</i>
  <i type="int" name="ISIF">     2</i>
  <i name="ENCUT">    400.00000000</i>
  <i type="string" name="LREAL"> Auto</i>
  <i type="int" name="ISMEAR">     1</i>
  <i name="SIGMA">      0.10000000</i>
  <i type="logical" name="LWAVE"> F  </i>
  <i type="logical" name="LCHARG"> F  </i>
  <v type="int" name="KPOINT_BSE">    -1     0     0     0</v>
  <i type="int" name="NELM">   100</i>
 </incar>
 <kpoints>
  <generation param="Auto">
   <i name="subdivisionlength">     20.00000000 </i>
   <v type="int" name="divisions">       2        1        1 </v>
   <v name="usershift">      0.00000000       0.00000000       0.00000000 </v>
   <v name="genvec1">      0.50000000       0.00000000       0.00000000 </v>
   <v name="genvec2">      0.00000000       1.00000000       0.00000000 </v>
   <v name="genvec3">      0.00000000       0.00000000       1.00000000 </v>
   <v name="shift">      0.00000000       0.00000000       0.00000000 </v>
  </generation>
  <varray name="kpointlist" >
   <v>       0.00000000       0.00000000       0.00000000 </v>
   <v>       0.50000000       0.00000000       0.00000000 </v>
  </varray>
  <varray name="weights" >
   <v>       0.50000000 </v>
   <v>       0.50000000 </v>
  </varray>
 </kpoints>
 <parameters>
  <separator name="general" >
   <i type="string" name="SYSTEM">Al_Al2O3</i>
   <i type="logical" name="LCOMPAT"> F  </i>
  </separator>
  <separator name="electronic" >
   <i type="string" name="PREC">accura</i>
   <i name="ENMAX">    400.00000000</i>
   <i name="ENAUG">    605.39200000</i>
   <i name="EDIFF">      0.00100000</i>
   <i type="int" name="IALGO">    68</i>
   <i type="int" name="IWAVPR">    11</i>
   <i type="int" name="NBANDS">   368</i>
   <i name="NELECT">    579.00000000</i>
   <i type="int" name="TURBO">     0</i>
   <i type="int" name="IRESTART">     0</i>
   <i type="int" name="NREBOOT">     0</i>
   <i type="int" name="NMIN">     0</i>
   <i name="EREF">      0.00000000</i>
   <separator name="electronic smearing" >
    <i type="int" name="ISMEAR">     1</i>
    <i name="SIGMA">      0.10000000</i>
    <i name="KSPACING">      0.50000000</i>
    <i type="logical" name="KGAMMA"> T  </i>
   </separator>
   <separator name="electronic projectors" >
    <i type="logical" name="LREAL"> T  </i>
    <v name="ROPT">     -0.00025000     -0.00025000</v>
    <i type="int" name="LMAXPAW">  -100</i>
    <i type="int" name="LMAXMIX">     2</i>
    <i type="logical" name="NLSPLINE"> F  </i>
   </separator>
   <separator name="electronic startup" >
    <i type="int" name="ISTART">     0</i>
    <i type="int" name="ICHARG">     2</i>
    <i type="int" name="INIWAV">     1</i>
   </separator>
   <separator name="electronic spin" >
    <i type="int" name="ISPIN">     1</i>
    <i type="logical" name="LNONCOLLINEAR"> F  </i>
    <v name="MAGMOM">      1.00000000      1.00000000      1.00000000      1.00000000      1.00000000      1.00000000      1.00000000      1.00000000      1.00000000      1.00000000      1.00000000      1.00000000      1.00000000      1.00000000      1.00000000      1.00000000      1.00000000      1.00000000      1.00000000      1.00000000
      1.00000000      1.00000000      1.00000000      1.00000000      1.00000000      1.00000000      1.00000000      1.00000000      1.00000000      1.00000000      1.00000000      1.00000000      1.00000000      1.00000000      1.00000000      1.00000000      1.00000000      1.00000000      1.00000000      1.00000000
      1.00000000      1.00000000      1.00000000      1.00000000      1.00000000      1.00000000      1.00000000      1.00000000      1.00000000      1.00000000      1.00000000      1.00000000      1.00000000      1.00000000      1.00000000      1.00000000      1.00000000      1.00000000      1.00000000      1.00000000
      1.00000000      1.00000000      1.00000000      1.00000000      1.00000000      1.00000000      1.00000000      1.00000000      1.00000000      1.00000000      1.00000000      1.00000000      1.00000000      1.00000000      1.00000000      1.00000000      1.00000000      1.00000000      1.00000000      1.00000000
      1.00000000      1.00000000      1.00000000      1.00000000      1.00000000      1.00000000      1.00000000      1.00000000      1.00000000      1.00000000      1.00000000      1.00000000      1.00000000      1.00000000      1.00000000      1.00000000      1.00000000      1.00000000      1.00000000      1.00000000
      1.00000000      1.00000000      1.00000000      1.00000000      1.00000000      1.00000000      1.00000000      1.00000000      1.00000000      1.00000000      1.00000000      1.00000000      1.00000000      1.00000000      1.00000000      1.00000000      1.00000000      1.00000000      1.00000000      1.00000000
      1.00000000      1.00000000      1.00000000      1.00000000      1.00000000      1.00000000      1.00000000      1.00000000      1.00000000      1.00000000      1.00000000      1.00000000      1.00000000      1.00000000      1.00000000      1.00000000      1.00000000      1.00000000      1.00000000      1.00000000
      1.00000000      1.00000000      1.00000000      1.00000000</v>
    <i name="NUPDOWN">     -1.00000000</i>
    <i type="logical" name="LSORBIT"> F  </i>
    <v name="SAXIS">      0.00000000      0.00000000      1.00000000</v>
    <i type="logical" name="LSPIRAL"> F  </i>
    <v name="QSPIRAL">      0.00000000      0.00000000      0.00000000</v>
    <i type="logical" name="LZEROZ"> F  </i>
   </separator>
   <separator name="electronic exchange-correlation" >
    <i type="logical" name="LASPH"> F  </i>
    <i type="logical" name="LMETAGGA"> F  </i>
   </separator>
   <separator name="electronic convergence" >
    <i type="int" name="NELM">   100</i>
    <i type="int" name="NELMDL">    -5</i>
    <i type="int" name="NELMIN">     2</i>
    <i name="ENINI">    400.00000000</i>
    <separator name="electronic convergence detail" >
     <i type="logical" name="LDIAG"> T  </i>
     <i type="logical" name="LSUBROT"> F  </i>
     <i name="WEIMIN">      0.00100000</i>
     <i name="EBREAK">      0.00000068</i>
     <i name="DEPER">      0.30000000</i>
     <i type="int" name="NRMM">     4</i>
     <i name="TIME">      0.40000000</i>
    </separator>
   </separator>
   <separator name="electronic mixer" >
    <i name="AMIX">      0.40000000</i>
    <i name="BMIX">      1.00000000</i>
    <i name="AMIN">      0.10000000</i>
    <i name="AMIX_MAG">      1.60000000</i>
    <i name="BMIX_MAG">      1.00000000</i>
    <separator name="electronic mixer details" >
     <i type="int" name="IMIX">     4</i>
     <i type="logical" name="MIXFIRST"> F  </i>
     <i type="int" name="MAXMIX">   -45</i>
     <i name="WC">    100.00000000</i>
     <i type="int" name="INIMIX">     1</i>
     <i type="int" name="MIXPRE">     1</i>
     <i type="int" name="MREMOVE">     5</i>
    </separator>
   </separator>
   <separator name="electronic dipolcorrection" >
    <i type="logical" name="LDIPOL"> F  </i>
    <i type="logical" name="LMONO"> F  </i>
    <i type="int" name="IDIPOL">     0</i>
    <i name="EPSILON">      1.00000000</i>
    <v name="DIPOL">   -100.00000000   -100.00000000   -100.00000000</v>
    <i name="EFIELD">      0.00000000</i>
   </separator>
  </separator>
  <separator name="grids" >
   <i type="int" name="NGX">    56</i>
   <i type="int" name="NGY">    96</i>
   <i type="int" name="NGZ">   108</i>
   <i type="int" name="NGXF">   112</i>
   <i type="int" name="NGYF">   192</i>
   <i type="int" name="NGZF">   216</i>
   <i type="logical" name="ADDGRID"> F  </i>
  </separator>
  <separator name="ionic" >
   <i type="int" name="NSW">   100</i>
   <i type="int" name="IBRION">     2</i>
   <i type="int" name="ISIF">     2</i>
   <i name="PSTRESS">      0.00000000</i>
   <i name="EDIFFG">      0.01000000</i>
   <i type="int" name="NFREE">     1</i>
   <i name="POTIM">      0.50000000</i>
   <i name="SMASS">     -3.00000000</i>
   <i name="SCALEE">      1.00000000</i>
  </separator>
  <separator name="ionic md" >
   <i name="TEBEG">      0.00010000</i>
   <i name="TEEND">      0.00010000</i>
   <i type="int" name="NBLOCK">     1</i>
   <i type="int" name="KBLOCK">   100</i>
   <i type="int" name="NPACO">   256</i>
   <i name="APACO">     16.00000000</i>
  </separator>
  <separator name="symmetry" >
   <i type="int" name="ISYM">     2</i>
   <i name="SYMPREC">      0.00001000</i>
  </separator>
  <separator name="dos" >
   <i type="logical" name="LORBIT"> F  </i>
   <v name="RWIGS">     -1.00000000     -1.00000000</v>
   <i type="int" name="NEDOS">   301</i>
   <i name="EMIN">     10.00000000</i>
   <i name="EMAX">    -10.00000000</i>
   <i name="EFERMI">      0.00000000</i>
  </separator>
  <separator name="writing" >
   <i type="int" name="NWRITE">     2</i>
   <i type="logical" name="LWAVE"> F  </i>
   <i type="logical" name="LCHARG"> F  </i>
   <i type="logical" name="LPARD"> F  </i>
   <i type="logical" name="LVTOT"> F  </i>
   <i type="logical" name="LVHAR"> F  </i>
   <i type="logical" name="LELF"> F  </i>
   <i type="logical" name="LOPTICS"> F  </i>
   <v name="STM">      0.00000000      0.00000000      0.00000000      0.00000000      0.00000000      0.00000000      0.00000000</v>
  </separator>
  <separator name="performance" >
   <i type="int" name="NPAR">     8</i>
   <i type="int" name="NSIM">     4</i>
   <i type="int" name="NBLK">    -1</i>
   <i type="logical" name="LPLANE"> T  </i>
   <i type="logical" name="LSCALAPACK"> T  </i>
   <i type="logical" name="LSCAAWARE"> F  </i>
   <i type="logical" name="LSCALU"> F  </i>
   <i type="logical" name="LASYNC"> F  </i>
   <i type="logical" name="LORBITALREAL"> F  </i>
  </separator>
  <separator name="miscellaneous" >
   <i type="int" name="IDIOT">     3</i>
   <i type="logical" name="LMUSIC"> F  </i>
   <v name="POMASS">     26.98100000     16.00000000</v>
   <v name="DARWINR">      0.00000000      0.00000000</v>
   <v name="DARWINV">      1.00000000      1.00000000</v>
   <i type="logical" name="LCORR"> T  </i>
  </separator>
  <i type="logical" name="GGA_COMPAT"> T  </i>
  <i type="logical" name="LBERRY"> F  </i>
  <i type="int" name="ICORELEVEL">     0</i>
  <i type="logical" name="LDAU"> F  </i>
  <i type="int" name="I_CONSTRAINED_M">     0</i>
  <separator name="electronic exchange-correlation" >
   <i type="string" name="GGA">--</i>
   <i type="int" name="VOSKOWN">     0</i>
   <i type="logical" name="LHFCALC"> F  </i>
   <i type="string" name="PRECFOCK"></i>
   <i type="logical" name="LSYMGRAD"> F  </i>
   <i type="logical" name="LHFONE"> F  </i>
   <i type="logical" name="LRHFCALC"> F  </i>
   <i type="logical" name="LTHOMAS"> F  </i>
   <i type="logical" name="LMODELHF"> F  </i>
   <i name="ENCUT4O">     -1.00000000</i>
   <i type="int" name="EXXOEP">     0</i>
   <i type="int" name="FOURORBIT">     0</i>
   <i name="AEXX">      0.00000000</i>
   <i name="HFALPHA">      0.00000000</i>
   <i name="MCALPHA">      0.00000000</i>
   <i name="ALDAX">      1.00000000</i>
   <i name="AGGAX">      1.00000000</i>
   <i name="ALDAC">      1.00000000</i>
   <i name="AGGAC">      1.00000000</i>
   <i type="int" name="NKREDX">     1</i>
   <i type="int" name="NKREDY">     1</i>
   <i type="int" name="NKREDZ">     1</i>
   <i type="logical" name="SHIFTRED"> F  </i>
   <i type="logical" name="ODDONLY"> F  </i>
   <i type="logical" name="EVENONLY"> F  </i>
   <i type="int" name="LMAXFOCK">     0</i>
   <i type="int" name="NMAXFOCKAE">     0</i>
   <i type="logical" name="LFOCKAEDFT"> F  </i>
   <i name="HFSCREEN">      0.00000000</i>
   <i name="HFSCREENC">      0.00000000</i>
   <i type="int" name="NBANDSGWLOW">     0</i>
  </separator>
  <separator name="vdW DFT" >
   <i type="logical" name="LUSE_VDW"> F  </i>
   <i name="Zab_VDW">     -0.84910000</i>
   <i name="PARAM1">      0.12340000</i>
   <i name="PARAM2">      1.00000000</i>
   <i name="PARAM3">      0.00000000</i>
  </separator>
  <separator name="model GW" >
   <i type="int" name="MODEL_GW">     0</i>
   <i name="MODEL_EPS0">      8.50152143</i>
   <i name="MODEL_ALPHA">      1.00000000</i>
  </separator>
  <separator name="linear response parameters" >
   <i type="logical" name="LEPSILON"> F  </i>
   <i type="logical" name="LRPA"> F  </i>
   <i type="logical" name="LNABLA"> F  </i>
   <i type="logical" name="LVEL"> F  </i>
   <i type="int" name="KINTER">     0</i>
   <i name="CSHIFT">      0.10000000</i>
   <i name="OMEGAMAX">     -1.00000000</i>
   <i name="DEG_THRESHOLD">      0.00200000</i>
  </separator>
  <separator name="orbital magnetization" >
   <i type="logical" name="NUCIND"> F  </i>
   <v name="MAGPOS">      0.00000000      0.00000000      0.00000000</v>
   <i type="logical" name="LNICSALL"> T  </i>
   <i type="logical" name="ORBITALMAG"> F  </i>
   <i type="logical" name="LMAGBLOCH"> F  </i>
   <i type="logical" name="LCHIMAG"> F  </i>
   <i type="logical" name="LGAUGE"> T  </i>
   <i type="int" name="MAGATOM">     0</i>
   <v name="MAGDIPOL">      0.00000000      0.00000000      0.00000000</v>
   <v name="AVECCONST">      0.00000000      0.00000000      0.00000000</v>
  </separator>
  <separator name="response functions" >
   <i type="logical" name="LADDER"> F  </i>
   <i type="logical" name="LFXC"> F  </i>
   <i type="logical" name="LHARTREE"> T  </i>
   <i type="int" name="IBSE">     0</i>
   <v type="int" name="KPOINT">    -1     0     0     0</v>
   <i type="logical" name="LTCTE"> F  </i>
   <i type="logical" name="LTETE"> F  </i>
   <i type="logical" name="LTRIPLET"> F  </i>
   <i type="logical" name="LFXCEPS"> F  </i>
   <i type="logical" name="LFXHEG"> F  </i>
   <i type="int" name="NATURALO">     0</i>
   <i type="logical" name="L2ORDER"> F  </i>
   <i type="logical" name="LUSEW"> F  </i>
   <i name="ENCUTGW">     -2.00000000</i>
   <i name="ENCUTGWSOFT">     -2.00000000</i>
   <i name="ENCUTLF">     -1.00000000</i>
   <i type="int" name="LMAXMP2">    -1</i>
   <i name="SCISSOR">      0.00000000</i>
   <i type="int" name="NOMEGA">     0</i>
   <i type="int" name="NOMEGAR">     0</i>
   <i type="int" name="NBANDSGW">    -1</i>
   <i type="int" name="NBANDSO">    -1</i>
   <i type="int" name="NBANDSV">    -1</i>
   <i type="int" name="NELM">   100</i>
   <i type="int" name="NELMHF">     1</i>
   <i type="int" name="DIM">     3</i>
   <i type="int" name="ANTIRES">     0</i>
   <i name="OMEGAMAX">    -30.00000000</i>
   <i name="OMEGAMIN">    -30.00000000</i>
   <i name="OMEGATL">   -200.00000000</i>
   <i type="int" name="OMEGAGRID">     0</i>
   <i name="CSHIFT">     -0.10000000</i>
   <i type="logical" name="SELFENERGY"> F  </i>
   <i type="logical" name="LSPECTRAL"> F  </i>
   <i type="logical" name="LSPECTRALGW"> F  </i>
   <i type="logical" name="LSINGLES"> F  </i>
   <i type="logical" name="LFERMIGW"> F  </i>
   <i type="logical" name="ODDONLYGW"> F  </i>
   <i type="logical" name="EVENONLYGW"> F  </i>
   <i type="int" name="NKREDLFX">     1</i>
   <i type="int" name="NKREDLFY">     1</i>
   <i type="int" name="NKREDLFZ">     1</i>
   <i type="int" name="MAXMEM">  1800</i>
   <i type="int" name="TELESCOPE">     0</i>
   <i type="int" name="TAUPAR">     1</i>
   <i type="int" name="OMEGAPAR">    -1</i>
   <i name="LAMBDA">      1.00000000</i>
  </separator>
  <separator name="External order field" >
   <i name="OFIELD_KAPPA">      0.00000000</i>
   <v name="OFIELD_K">      0.00000000      0.00000000      0.00000000</v>
   <i name="OFIELD_Q6_NEAR">      0.00000000</i>
   <i name="OFIELD_Q6_FAR">      0.00000000</i>
   <i name="OFIELD_A">      0.00000000</i>
  </separator>
  <separator name="solvation model" >
   <i type="logical" name="LSOL"> F  </i>
  </separator>
 </parameters>
 <atominfo>
  <atoms>     144 </atoms>
  <types>       2 </types>
  <array name="atoms" >
   <dimension dim="1">ion</dimension>
   <field type="string">element</field>
   <field type="int">atomtype</field>
   <set>
    <rc><c>Al</c><c>   1</c></rc>
    <rc><c>Al</c><c>   1</c></rc>
    <rc><c>Al</c><c>   1</c></rc>
    <rc><c>Al</c><c>   1</c></rc>
    <rc><c>Al</c><c>   1</c></rc>
    <rc><c>Al</c><c>   1</c></rc>
    <rc><c>Al</c><c>   1</c></rc>
    <rc><c>Al</c><c>   1</c></rc>
    <rc><c>Al</c><c>   1</c></rc>
    <rc><c>Al</c><c>   1</c></rc>
    <rc><c>Al</c><c>   1</c></rc>
    <rc><c>Al</c><c>   1</c></rc>
    <rc><c>Al</c><c>   1</c></rc>
    <rc><c>Al</c><c>   1</c></rc>
    <rc><c>Al</c><c>   1</c></rc>
    <rc><c>Al</c><c>   1</c></rc>
    <rc><c>Al</c><c>   1</c></rc>
    <rc><c>Al</c><c>   1</c></rc>
    <rc><c>Al</c><c>   1</c></rc>
    <rc><c>Al</c><c>   1</c></rc>
    <rc><c>Al</c><c>   1</c></rc>
    <rc><c>Al</c><c>   1</c></rc>
    <rc><c>Al</c><c>   1</c></rc>
    <rc><c>Al</c><c>   1</c></rc>
    <rc><c>Al</c><c>   1</c></rc>
    <rc><c>Al</c><c>   1</c></rc>
    <rc><c>Al</c><c>   1</c></rc>
    <rc><c>Al</c><c>   1</c></rc>
    <rc><c>Al</c><c>   1</c></rc>
    <rc><c>Al</c><c>   1</c></rc>
    <rc><c>Al</c><c>   1</c></rc>
    <rc><c>Al</c><c>   1</c></rc>
    <rc><c>Al</c><c>   1</c></rc>
    <rc><c>Al</c><c>   1</c></rc>
    <rc><c>Al</c><c>   1</c></rc>
    <rc><c>Al</c><c>   1</c></rc>
    <rc><c>Al</c><c>   1</c></rc>
    <rc><c>Al</c><c>   1</c></rc>
    <rc><c>Al</c><c>   1</c></rc>
    <rc><c>Al</c><c>   1</c></rc>
    <rc><c>Al</c><c>   1</c></rc>
    <rc><c>Al</c><c>   1</c></rc>
    <rc><c>Al</c><c>   1</c></rc>
    <rc><c>Al</c><c>   1</c></rc>
    <rc><c>Al</c><c>   1</c></rc>
    <rc><c>Al</c><c>   1</c></rc>
    <rc><c>Al</c><c>   1</c></rc>
    <rc><c>Al</c><c>   1</c></rc>
    <rc><c>Al</c><c>   1</c></rc>
    <rc><c>Al</c><c>   1</c></rc>
    <rc><c>Al</c><c>   1</c></rc>
    <rc><c>Al</c><c>   1</c></rc>
    <rc><c>Al</c><c>   1</c></rc>
    <rc><c>Al</c><c>   1</c></rc>
    <rc><c>Al</c><c>   1</c></rc>
    <rc><c>Al</c><c>   1</c></rc>
    <rc><c>Al</c><c>   1</c></rc>
    <rc><c>Al</c><c>   1</c></rc>
    <rc><c>Al</c><c>   1</c></rc>
    <rc><c>Al</c><c>   1</c></rc>
    <rc><c>Al</c><c>   1</c></rc>
    <rc><c>Al</c><c>   1</c></rc>
    <rc><c>Al</c><c>   1</c></rc>
    <rc><c>Al</c><c>   1</c></rc>
    <rc><c>Al</c><c>   1</c></rc>
    <rc><c>Al</c><c>   1</c></rc>
    <rc><c>Al</c><c>   1</c></rc>
    <rc><c>Al</c><c>   1</c></rc>
    <rc><c>Al</c><c>   1</c></rc>
    <rc><c>Al</c><c>   1</c></rc>
    <rc><c>Al</c><c>   1</c></rc>
    <rc><c>Al</c><c>   1</c></rc>
    <rc><c>Al</c><c>   1</c></rc>
    <rc><c>Al</c><c>   1</c></rc>
    <rc><c>Al</c><c>   1</c></rc>
    <rc><c>Al</c><c>   1</c></rc>
    <rc><c>Al</c><c>   1</c></rc>
    <rc><c>Al</c><c>   1</c></rc>
    <rc><c>Al</c><c>   1</c></rc>
    <rc><c>Al</c><c>   1</c></rc>
    <rc><c>Al</c><c>   1</c></rc>
    <rc><c>Al</c><c>   1</c></rc>
    <rc><c>Al</c><c>   1</c></rc>
    <rc><c>Al</c><c>   1</c></rc>
    <rc><c>Al</c><c>   1</c></rc>
    <rc><c>Al</c><c>   1</c></rc>
    <rc><c>Al</c><c>   1</c></rc>
    <rc><c>Al</c><c>   1</c></rc>
    <rc><c>Al</c><c>   1</c></rc>
    <rc><c>Al</c><c>   1</c></rc>
    <rc><c>Al</c><c>   1</c></rc>
    <rc><c>Al</c><c>   1</c></rc>
    <rc><c>Al</c><c>   1</c></rc>
    <rc><c>Al</c><c>   1</c></rc>
    <rc><c>Al</c><c>   1</c></rc>
    <rc><c>O </c><c>   2</c></rc>
    <rc><c>O </c><c>   2</c></rc>
    <rc><c>O </c><c>   2</c></rc>
    <rc><c>O </c><c>   2</c></rc>
    <rc><c>O </c><c>   2</c></rc>
    <rc><c>O </c><c>   2</c></rc>
    <rc><c>O </c><c>   2</c></rc>
    <rc><c>O </c><c>   2</c></rc>
    <rc><c>O </c><c>   2</c></rc>
    <rc><c>O </c><c>   2</c></rc>
    <rc><c>O </c><c>   2</c></rc>
    <rc><c>O </c><c>   2</c></rc>
    <rc><c>O </c><c>   2</c></rc>
    <rc><c>O </c><c>   2</c></rc>
    <rc><c>O </c><c>   2</c></rc>
    <rc><c>O </c><c>   2</c></rc>
    <rc><c>O </c><c>   2</c></rc>
    <rc><c>O </c><c>   2</c></rc>
    <rc><c>O </c><c>   2</c></rc>
    <rc><c>O </c><c>   2</c></rc>
    <rc><c>O </c><c>   2</c></rc>
    <rc><c>O </c><c>   2</c></rc>
    <rc><c>O </c><c>   2</c></rc>
    <rc><c>O </c><c>   2</c></rc>
    <rc><c>O </c><c>   2</c></rc>
    <rc><c>O </c><c>   2</c></rc>
    <rc><c>O </c><c>   2</c></rc>
    <rc><c>O </c><c>   2</c></rc>
    <rc><c>O </c><c>   2</c></rc>
    <rc><c>O </c><c>   2</c></rc>
    <rc><c>O </c><c>   2</c></rc>
    <rc><c>O </c><c>   2</c></rc>
    <rc><c>O </c><c>   2</c></rc>
    <rc><c>O </c><c>   2</c></rc>
    <rc><c>O </c><c>   2</c></rc>
    <rc><c>O </c><c>   2</c></rc>
    <rc><c>O </c><c>   2</c></rc>
    <rc><c>O </c><c>   2</c></rc>
    <rc><c>O </c><c>   2</c></rc>
    <rc><c>O </c><c>   2</c></rc>
    <rc><c>O </c><c>   2</c></rc>
    <rc><c>O </c><c>   2</c></rc>
    <rc><c>O </c><c>   2</c></rc>
    <rc><c>O </c><c>   2</c></rc>
    <rc><c>O </c><c>   2</c></rc>
    <rc><c>O </c><c>   2</c></rc>
    <rc><c>O </c><c>   2</c></rc>
    <rc><c>O </c><c>   2</c></rc>
    <rc><c>O </c><c>   2</c></rc>
   </set>
  </array>
  <array name="atomtypes" >
   <dimension dim="1">type</dimension>
   <field type="int">atomspertype</field>
   <field type="string">element</field>
   <field>mass</field>
   <field>valence</field>
   <field type="string">pseudopotential</field>
   <set>
    <rc><c>  95</c><c>Al</c><c>     26.98100000</c><c>      3.00000000</c><c>  PAW_PBE Al 04Jan2001                  </c></rc>
    <rc><c>  49</c><c>O </c><c>     16.00000000</c><c>      6.00000000</c><c>  PAW_PBE O 08Apr2002                   </c></rc>
   </set>
  </array>
 </atominfo>
 <structure name="initialpos" >
  <crystal>
   <varray name="basis" >
    <v>       8.42830000       0.00000000       0.00000000 </v>
    <v>       0.00000000      14.59820000       0.00000000 </v>
    <v>       0.00000000       0.00000000      16.58321000 </v>
   </varray>
   <i name="volume">   2040.36514222 </i>
   <varray name="rec_basis" >
    <v>       0.11864789       0.00000000       0.00000000 </v>
    <v>       0.00000000       0.06850160       0.00000000 </v>
    <v>       0.00000000       0.00000000       0.06030196 </v>
   </varray>
  </crystal>
  <varray name="positions" >
   <v>       0.83333500       0.67754300       0.78930800 </v>
   <v>       0.00000000       0.84420700       0.78999400 </v>
   <v>       0.16666700       0.67754300       0.78930800 </v>
   <v>       0.66666800       0.84420700       0.78999400 </v>
   <v>       0.50000100       0.67754300       0.78930800 </v>
   <v>       0.33333400       0.84420700       0.78999400 </v>
   <v>       0.68026100       0.83333600       0.08660300 </v>
   <v>       0.01359400       0.83333600       0.18854400 </v>
   <v>       0.18025900       0.00000000       0.08660300 </v>
   <v>       0.51359300       0.00000000       0.18854400 </v>
   <v>       0.68026100       0.16666700       0.08660300 </v>
   <v>       0.18025900       0.33333300       0.08660300 </v>
   <v>       0.51359300       0.33333300       0.18854400 </v>
   <v>       0.01359400       0.16666700       0.18854400 </v>
   <v>       0.68026100       0.50000000       0.08660300 </v>
   <v>       0.18025900       0.66666600       0.08660300 </v>
   <v>       0.51359300       0.66666600       0.18854400 </v>
   <v>       0.01359400       0.50000000       0.18854400 </v>
   <v>       0.01359400       0.16666700       0.32676700 </v>
   <v>       0.84692800       0.33333300       0.21815900 </v>
   <v>       0.51359300       0.66666600       0.32676700 </v>
   <v>       0.34692800       0.50000000       0.21815900 </v>
   <v>       0.01359400       0.50000000       0.32676700 </v>
   <v>       0.51359300       0.00000000       0.32676700 </v>
   <v>       0.51359300       0.33333300       0.32676700 </v>
   <v>       0.01359400       0.83333600       0.32676700 </v>
   <v>       0.68026100       0.16666700       0.45811500 </v>
   <v>       0.51359300       0.33333300       0.53966700 </v>
   <v>       0.68026100       0.50000000       0.45811500 </v>
   <v>       0.56895200       0.92747100       0.47125700 </v>
   <v>       0.51359300       0.66666600       0.53966700 </v>
   <v>       0.34692800       0.50000000       0.35638700 </v>
   <v>       0.34692800       0.83333600       0.35638700 </v>
   <v>       0.34692800       0.16666700       0.35638700 </v>
   <v>       0.84692800       0.66666700       0.35638700 </v>
   <v>       0.84692800       0.66666700       0.21815900 </v>
   <v>       0.34692800       0.83333600       0.21815900 </v>
   <v>       0.34692800       0.16666700       0.21815900 </v>
   <v>       0.84692800       0.00000000       0.21815900 </v>
   <v>       0.84692800       0.33333300       0.35638700 </v>
   <v>       0.34692800       0.83333600       0.05698300 </v>
   <v>       0.34692800       0.16666700       0.05698300 </v>
   <v>       0.34692800       0.50000000       0.05698300 </v>
   <v>       0.84692800       0.33333300       0.05698300 </v>
   <v>       0.84692800       0.66666700       0.05698300 </v>
   <v>       0.84692800       0.00000000       0.05698300 </v>
   <v>       0.84692800       0.00000000       0.35638700 </v>
   <v>       0.00000000       0.06715700       0.64645100 </v>
   <v>       0.50000100       0.23382400       0.64714600 </v>
   <v>       0.00000000       0.40049000       0.64782600 </v>
   <v>       0.50000100       0.56715700       0.64851200 </v>
   <v>       0.00000000       0.73382300       0.64920200 </v>
   <v>       0.50000100       0.90048800       0.64988900 </v>
   <v>       0.66666800       0.06715700       0.64645100 </v>
   <v>       0.16666700       0.23382400       0.64714600 </v>
   <v>       0.66666800       0.40049000       0.64782600 </v>
   <v>       0.16666700       0.56715700       0.64851200 </v>
   <v>       0.66666800       0.73382300       0.64920200 </v>
   <v>       0.16666700       0.90048800       0.64988900 </v>
   <v>       0.33333400       0.06715700       0.64645100 </v>
   <v>       0.83333500       0.23382400       0.64714600 </v>
   <v>       0.00000000       0.95459700       0.93078000 </v>
   <v>       0.33333400       0.40049000       0.64782600 </v>
   <v>       0.83333500       0.56715700       0.64851200 </v>
   <v>       0.50000100       0.78792600       0.93010000 </v>
   <v>       0.33333400       0.73382300       0.64920200 </v>
   <v>       0.00000000       0.62126200       0.92941400 </v>
   <v>       0.83333500       0.90048800       0.64988900 </v>
   <v>       0.50000100       0.45459500       0.92872500 </v>
   <v>       0.00000000       0.28792900       0.92803900 </v>
   <v>       0.50000100       0.12126200       0.92735000 </v>
   <v>       0.66666800       0.95459700       0.93078000 </v>
   <v>       0.16666700       0.78792600       0.93010000 </v>
   <v>       0.66666800       0.62126200       0.92941400 </v>
   <v>       0.16666700       0.45459500       0.92872500 </v>
   <v>       0.66666800       0.28792900       0.92803900 </v>
   <v>       0.16666700       0.12126200       0.92735000 </v>
   <v>       0.33333400       0.95459700       0.93078000 </v>
   <v>       0.83333500       0.78792600       0.93010000 </v>
   <v>       0.33333400       0.62126200       0.92941400 </v>
   <v>       0.83333500       0.45459500       0.92872500 </v>
   <v>       0.33333400       0.28792900       0.92803900 </v>
   <v>       0.50000100       0.01087700       0.78655700 </v>
   <v>       0.83333500       0.01087700       0.78655700 </v>
   <v>       0.16666700       0.01087700       0.78655700 </v>
   <v>       0.83333500       0.12126200       0.92735000 </v>
   <v>       0.66666800       0.17754300       0.78724600 </v>
   <v>       0.00000000       0.17754300       0.78724600 </v>
   <v>       0.33333400       0.17754300       0.78724600 </v>
   <v>       0.83333500       0.34421000       0.78793300 </v>
   <v>       0.16666700       0.34421000       0.78793300 </v>
   <v>       0.66666800       0.51087600       0.78861900 </v>
   <v>       0.00000000       0.51087600       0.78861900 </v>
   <v>       0.50000100       0.34421000       0.78793300 </v>
   <v>       0.33333400       0.51087600       0.78861900 </v>
   <v>       0.69385400       0.94897300       0.13757100 </v>
   <v>       0.84692800       0.76871800       0.13757100 </v>
   <v>       0.50000000       0.78230900       0.13757100 </v>
   <v>       0.00000000       0.94897300       0.13757100 </v>
   <v>       0.19385400       0.11564200       0.13757100 </v>
   <v>       0.34692800       0.93538200       0.13757100 </v>
   <v>       0.69385400       0.28230900       0.13757100 </v>
   <v>       0.84692800       0.10204900       0.13757100 </v>
   <v>       0.50000000       0.11564300       0.13757100 </v>
   <v>       0.00000000       0.28230900       0.13757100 </v>
   <v>       0.19385400       0.44897600       0.13757100 </v>
   <v>       0.34692800       0.26871500       0.13757100 </v>
   <v>       0.69385400       0.61564200       0.13757100 </v>
   <v>       0.84692800       0.43538200       0.13757100 </v>
   <v>       0.50000000       0.44897600       0.13757100 </v>
   <v>       0.00000000       0.61564200       0.13757100 </v>
   <v>       0.19385400       0.78230900       0.13757100 </v>
   <v>       0.34692800       0.60204800       0.13757100 </v>
   <v>       0.86052100       0.21769100       0.26913200 </v>
   <v>       0.16666700       0.21769100       0.26913200 </v>
   <v>       0.01359400       0.06461800       0.26913200 </v>
   <v>       0.51359300       0.56461800       0.26913200 </v>
   <v>       0.36052100       0.71769100       0.26913200 </v>
   <v>       0.66666700       0.71769100       0.26913200 </v>
   <v>       0.01359400       0.39795100       0.26913200 </v>
   <v>       0.16666700       0.55102500       0.26913200 </v>
   <v>       0.86052100       0.55102500       0.26913200 </v>
   <v>       0.51359300       0.89795300       0.26913200 </v>
   <v>       0.36052100       0.05102500       0.26913200 </v>
   <v>       0.66666700       0.05102500       0.26913200 </v>
   <v>       0.51359300       0.23128500       0.26913200 </v>
   <v>       0.36052100       0.38435800       0.26913200 </v>
   <v>       0.66666700       0.38435800       0.26913200 </v>
   <v>       0.16666700       0.88435600       0.26913200 </v>
   <v>       0.86052100       0.88435600       0.26913200 </v>
   <v>       0.01359400       0.73128200       0.26913200 </v>
   <v>       0.50734300       0.08999500       0.40984600 </v>
   <v>       0.66346100       0.26827800       0.39211000 </v>
   <v>       0.18550600       0.42958900       0.39559700 </v>
   <v>       0.49899000       0.42768300       0.40817600 </v>
   <v>       0.69385400       0.61564200       0.49888900 </v>
   <v>       0.05341600       0.63734400       0.40240300 </v>
   <v>       0.20802900       0.94701400       0.40909200 </v>
   <v>       0.06435000       0.92266200       0.41062800 </v>
   <v>       0.00000000       0.94897300       0.49888900 </v>
   <v>       0.18548000       0.08179800       0.38605500 </v>
   <v>       0.16571800       0.77223900       0.38400600 </v>
   <v>       0.87867100       0.78180900       0.40160900 </v>
   <v>       0.34400100       0.28704100       0.38917400 </v>
  </varray>
  <varray name="selective"  type="logical" >
   <v type="logical" >  F  F  F </v>
   <v type="logical" >  F  F  F </v>
   <v type="logical" >  F  F  F </v>
   <v type="logical" >  F  F  F </v>
   <v type="logical" >  F  F  F </v>
   <v type="logical" >  F  F  F </v>
   <v type="logical" >  F  F  F </v>
   <v type="logical" >  F  F  F </v>
   <v type="logical" >  F  F  F </v>
   <v type="logical" >  F  F  F </v>
   <v type="logical" >  F  F  F </v>
   <v type="logical" >  F  F  F </v>
   <v type="logical" >  F  F  F </v>
   <v type="logical" >  F  F  F </v>
   <v type="logical" >  F  F  F </v>
   <v type="logical" >  F  F  F </v>
   <v type="logical" >  F  F  F </v>
   <v type="logical" >  F  F  F </v>
   <v type="logical" >  F  F  F </v>
   <v type="logical" >  F  F  F </v>
   <v type="logical" >  F  F  F </v>
   <v type="logical" >  F  F  F </v>
   <v type="logical" >  F  F  F </v>
   <v type="logical" >  F  F  F </v>
   <v type="logical" >  F  F  F </v>
   <v type="logical" >  F  F  F </v>
   <v type="logical" >  T  T  T </v>
   <v type="logical" >  T  T  T </v>
   <v type="logical" >  T  T  T </v>
   <v type="logical" >  T  T  T </v>
   <v type="logical" >  T  T  T </v>
   <v type="logical" >  F  F  F </v>
   <v type="logical" >  F  F  F </v>
   <v type="logical" >  F  F  F </v>
   <v type="logical" >  F  F  F </v>
   <v type="logical" >  F  F  F </v>
   <v type="logical" >  F  F  F </v>
   <v type="logical" >  F  F  F </v>
   <v type="logical" >  F  F  F </v>
   <v type="logical" >  F  F  F </v>
   <v type="logical" >  F  F  F </v>
   <v type="logical" >  F  F  F </v>
   <v type="logical" >  F  F  F </v>
   <v type="logical" >  F  F  F </v>
   <v type="logical" >  F  F  F </v>
   <v type="logical" >  F  F  F </v>
   <v type="logical" >  F  F  F </v>
   <v type="logical" >  F  F  F </v>
   <v type="logical" >  F  F  F </v>
   <v type="logical" >  F  F  F </v>
   <v type="logical" >  F  F  F </v>
   <v type="logical" >  F  F  F </v>
   <v type="logical" >  F  F  F </v>
   <v type="logical" >  F  F  F </v>
   <v type="logical" >  F  F  F </v>
   <v type="logical" >  F  F  F </v>
   <v type="logical" >  F  F  F </v>
   <v type="logical" >  F  F  F </v>
   <v type="logical" >  F  F  F </v>
   <v type="logical" >  F  F  F </v>
   <v type="logical" >  F  F  F </v>
   <v type="logical" >  F  F  F </v>
   <v type="logical" >  F  F  F </v>
   <v type="logical" >  F  F  F </v>
   <v type="logical" >  F  F  F </v>
   <v type="logical" >  F  F  F </v>
   <v type="logical" >  F  F  F </v>
   <v type="logical" >  F  F  F </v>
   <v type="logical" >  F  F  F </v>
   <v type="logical" >  F  F  F </v>
   <v type="logical" >  F  F  F </v>
   <v type="logical" >  F  F  F </v>
   <v type="logical" >  F  F  F </v>
   <v type="logical" >  F  F  F </v>
   <v type="logical" >  F  F  F </v>
   <v type="logical" >  F  F  F </v>
   <v type="logical" >  F  F  F </v>
   <v type="logical" >  F  F  F </v>
   <v type="logical" >  F  F  F </v>
   <v type="logical" >  F  F  F </v>
   <v type="logical" >  F  F  F </v>
   <v type="logical" >  F  F  F </v>
   <v type="logical" >  F  F  F </v>
   <v type="logical" >  F  F  F </v>
   <v type="logical" >  F  F  F </v>
   <v type="logical" >  F  F  F </v>
   <v type="logical" >  F  F  F </v>
   <v type="logical" >  F  F  F </v>
   <v type="logical" >  F  F  F </v>
   <v type="logical" >  F  F  F </v>
   <v type="logical" >  F  F  F </v>
   <v type="logical" >  F  F  F </v>
   <v type="logical" >  F  F  F </v>
   <v type="logical" >  F  F  F </v>
   <v type="logical" >  F  F  F </v>
   <v type="logical" >  F  F  F </v>
   <v type="logical" >  F  F  F </v>
   <v type="logical" >  F  F  F </v>
   <v type="logical" >  F  F  F </v>
   <v type="logical" >  F  F  F </v>
   <v type="logical" >  F  F  F </v>
   <v type="logical" >  F  F  F </v>
   <v type="logical" >  F  F  F </v>
   <v type="logical" >  F  F  F </v>
   <v type="logical" >  F  F  F </v>
   <v type="logical" >  F  F  F </v>
   <v type="logical" >  F  F  F </v>
   <v type="logical" >  F  F  F </v>
   <v type="logical" >  F  F  F </v>
   <v type="logical" >  F  F  F </v>
   <v type="logical" >  F  F  F </v>
   <v type="logical" >  F  F  F </v>
   <v type="logical" >  F  F  F </v>
   <v type="logical" >  F  F  F </v>
   <v type="logical" >  F  F  F </v>
   <v type="logical" >  F  F  F </v>
   <v type="logical" >  F  F  F </v>
   <v type="logical" >  F  F  F </v>
   <v type="logical" >  F  F  F </v>
   <v type="logical" >  F  F  F </v>
   <v type="logical" >  F  F  F </v>
   <v type="logical" >  F  F  F </v>
   <v type="logical" >  F  F  F </v>
   <v type="logical" >  F  F  F </v>
   <v type="logical" >  F  F  F </v>
   <v type="logical" >  F  F  F </v>
   <v type="logical" >  F  F  F </v>
   <v type="logical" >  F  F  F </v>
   <v type="logical" >  F  F  F </v>
   <v type="logical" >  F  F  F </v>
   <v type="logical" >  F  F  F </v>
   <v type="logical" >  F  F  F </v>
   <v type="logical" >  F  F  F </v>
   <v type="logical" >  F  F  F </v>
   <v type="logical" >  F  F  F </v>
   <v type="logical" >  T  T  T </v>
   <v type="logical" >  F  F  F </v>
   <v type="logical" >  F  F  F </v>
   <v type="logical" >  F  F  F </v>
   <v type="logical" >  T  T  T </v>
   <v type="logical" >  F  F  F </v>
   <v type="logical" >  F  F  F </v>
   <v type="logical" >  F  F  F </v>
   <v type="logical" >  F  F  F </v>
  </varray>
  <nose>
   <v>      -3.00000000       0.00000000       0.00010000       0.00010000 </v>
  </nose>
 </structure>
 <calculation>
  <scstep>
   <time name="dav">    6.21    6.24</time>
   <time name="total">    6.38    6.42</time>
   <energy>
    <i name="alphaZ">    291.84107950 </i>
    <i name="ewald">   4191.00303869 </i>
    <i name="hartreedc"> -31851.05170905 </i>
    <i name="XCdc">  -1123.04537368 </i>
    <i name="pawpsdc">  23269.93929459 </i>
    <i name="pawaedc"> -20322.39320214 </i>
    <i name="eentropy">      0.00903566 </i>
    <i name="bandstr">   1848.57807107 </i>
    <i name="atom">  26267.02126631 </i>
    <i name="e_fr_energy">   2571.90150094 </i>
    <i name="e_wo_entrp">   2571.89246528 </i>
    <i name="e_0_energy">   2571.89848905 </i>
   </energy>
  </scstep>
  <scstep>
   <time name="dav">    7.54    7.54</time>
   <time name="total">    7.54    7.54</time>
   <energy>
    <i name="e_fr_energy">   -468.42484273 </i>
    <i name="e_wo_entrp">   -468.42642931 </i>
    <i name="e_0_energy">   -468.42537159 </i>
   </energy>
  </scstep>
  <scstep>
   <time name="dav">    6.87    6.87</time>
   <time name="total">    6.87    6.87</time>
   <energy>
    <i name="e_fr_energy">   -828.33549203 </i>
    <i name="e_wo_entrp">   -828.30656656 </i>
    <i name="e_0_energy">   -828.32585021 </i>
   </energy>
  </scstep>
  <scstep>
   <time name="dav">    6.94    6.95</time>
   <time name="total">    6.95    6.95</time>
   <energy>
    <i name="e_fr_energy">   -837.13183183 </i>
    <i name="e_wo_entrp">   -837.09987149 </i>
    <i name="e_0_energy">   -837.12117839 </i>
   </energy>
  </scstep>
  <scstep>
   <time name="dav">    7.63    7.63</time>
   <time name="total">    8.04    8.05</time>
   <energy>
    <i name="e_fr_energy">   -837.40581515 </i>
    <i name="e_wo_entrp">   -837.37395096 </i>
    <i name="e_0_energy">   -837.39519375 </i>
   </energy>
  </scstep>
  <scstep>
   <time name="diag">    1.06    1.07</time>
   <time name="diis">    3.32    3.35</time>
   <time name="orth">    0.26    0.26</time>
   <time name="total">    5.20    5.26</time>
   <energy>
    <i name="e_fr_energy">   -764.09320096 </i>
    <i name="e_wo_entrp">   -764.09141501 </i>
    <i name="e_0_energy">   -764.09260564 </i>
   </energy>
  </scstep>
  <scstep>
   <time name="diag">    1.08    1.09</time>
   <time name="diis">    3.38    3.41</time>
   <time name="orth">    0.26    0.26</time>
   <time name="total">    5.27    5.33</time>
   <energy>
    <i name="e_fr_energy">   -775.51049672 </i>
    <i name="e_wo_entrp">   -775.52544412 </i>
    <i name="e_0_energy">   -775.51547919 </i>
   </energy>
  </scstep>
  <scstep>
   <time name="diag">    1.06    1.07</time>
   <time name="diis">    3.33    3.36</time>
   <time name="orth">    0.26    0.26</time>
   <time name="total">    5.21    5.27</time>
   <energy>
    <i name="e_fr_energy">   -759.79523168 </i>
    <i name="e_wo_entrp">   -759.80131260 </i>
    <i name="e_0_energy">   -759.79725866 </i>
   </energy>
  </scstep>
  <scstep>
   <time name="diag">    1.05    1.07</time>
   <time name="diis">    3.34    3.42</time>
   <time name="orth">    0.26    0.26</time>
   <time name="total">    5.21    5.32</time>
   <energy>
    <i name="e_fr_energy">   -755.06184464 </i>
    <i name="e_wo_entrp">   -755.06717871 </i>
    <i name="e_0_energy">   -755.06362266 </i>
   </energy>
  </scstep>
  <scstep>
   <time name="diag">    1.06    1.07</time>
   <time name="diis">    3.31    3.34</time>
   <time name="orth">    0.26    0.27</time>
   <time name="total">    5.19    5.24</time>
   <energy>
    <i name="e_fr_energy">   -757.55153586 </i>
    <i name="e_wo_entrp">   -757.54230022 </i>
    <i name="e_0_energy">   -757.54845732 </i>
   </energy>
  </scstep>
  <scstep>
   <time name="diag">    1.06    1.07</time>
   <time name="diis">    3.34    3.37</time>
   <time name="orth">    0.26    0.26</time>
   <time name="total">    5.20    5.25</time>
   <energy>
    <i name="e_fr_energy">   -754.41811531 </i>
    <i name="e_wo_entrp">   -754.42938353 </i>
    <i name="e_0_energy">   -754.42187139 </i>
   </energy>
  </scstep>
  <scstep>
   <time name="diag">    1.06    1.06</time>
   <time name="diis">    3.36    3.36</time>
   <time name="orth">    0.26    0.26</time>
   <time name="total">    5.26    5.26</time>
   <energy>
    <i name="e_fr_energy">   -752.40492003 </i>
    <i name="e_wo_entrp">   -752.40258345 </i>
    <i name="e_0_energy">   -752.40414117 </i>
   </energy>
  </scstep>
  <scstep>
   <time name="diag">    1.06    1.07</time>
   <time name="diis">    3.35    3.38</time>
   <time name="orth">    0.26    0.26</time>
   <time name="total">    5.24    5.29</time>
   <energy>
    <i name="e_fr_energy">   -752.60397710 </i>
    <i name="e_wo_entrp">   -752.60063342 </i>
    <i name="e_0_energy">   -752.60286254 </i>
   </energy>
  </scstep>
  <scstep>
   <time name="diag">    1.06    1.07</time>
   <time name="diis">    3.28    3.31</time>
   <time name="orth">    0.26    0.26</time>
   <time name="total">    5.16    5.21</time>
   <energy>
    <i name="e_fr_energy">   -752.40027823 </i>
    <i name="e_wo_entrp">   -752.39268273 </i>
    <i name="e_0_energy">   -752.39774639 </i>
   </energy>
  </scstep>
  <scstep>
   <time name="diag">    1.05    1.06</time>
   <time name="diis">    3.22    3.28</time>
   <time name="orth">    0.26    0.26</time>
   <time name="total">    5.08    5.17</time>
   <energy>
    <i name="e_fr_energy">   -752.25077820 </i>
    <i name="e_wo_entrp">   -752.25913926 </i>
    <i name="e_0_energy">   -752.25356522 </i>
   </energy>
  </scstep>
  <scstep>
   <time name="diag">    1.05    1.07</time>
   <time name="diis">    2.77    2.82</time>
   <time name="orth">    0.26    0.26</time>
   <time name="total">    4.63    4.72</time>
   <energy>
    <i name="e_fr_energy">   -752.22539644 </i>
    <i name="e_wo_entrp">   -752.23212118 </i>
    <i name="e_0_energy">   -752.22763802 </i>
   </energy>
  </scstep>
  <scstep>
   <time name="diag">    1.04    1.06</time>
   <time name="diis">    2.38    2.43</time>
   <time name="orth">    0.25    0.26</time>
   <time name="total">    4.23    4.32</time>
   <energy>
    <i name="e_fr_energy">   -752.22097109 </i>
    <i name="e_wo_entrp">   -752.23059532 </i>
    <i name="e_0_energy">   -752.22417916 </i>
   </energy>
  </scstep>
  <scstep>
   <time name="diag">    1.05    1.06</time>
   <time name="diis">    2.55    2.57</time>
   <time name="orth">    0.26    0.26</time>
   <time name="total">    4.42    4.46</time>
   <energy>
    <i name="e_fr_energy">   -752.20290973 </i>
    <i name="e_wo_entrp">   -752.21089824 </i>
    <i name="e_0_energy">   -752.20557257 </i>
   </energy>
  </scstep>
  <scstep>
   <time name="diag">    1.05    1.06</time>
   <time name="diis">    3.07    3.10</time>
   <time name="orth">    0.25    0.26</time>
   <time name="total">    4.94    4.99</time>
   <energy>
    <i name="e_fr_energy">   -752.18616033 </i>
    <i name="e_wo_entrp">   -752.18870385 </i>
    <i name="e_0_energy">   -752.18700817 </i>
   </energy>
  </scstep>
  <scstep>
   <time name="diag">    1.05    1.06</time>
   <time name="diis">    2.60    2.63</time>
   <time name="orth">    0.26    0.26</time>
   <time name="total">    4.48    4.52</time>
   <energy>
    <i name="e_fr_energy">   -752.18388563 </i>
    <i name="e_wo_entrp">   -752.18605740 </i>
    <i name="e_0_energy">   -752.18460955 </i>
   </energy>
  </scstep>
  <scstep>
   <time name="diag">    1.05    1.06</time>
   <time name="diis">    2.15    2.17</time>
   <time name="orth">    0.25    0.26</time>
   <time name="total">    3.62    3.66</time>
   <energy>
    <i name="alphaZ">    291.84107950 </i>
    <i name="ewald">   4191.00303869 </i>
    <i name="hartreedc"> -32848.65383083 </i>
    <i name="XCdc">  -1055.92015810 </i>
    <i name="pawpsdc">  40229.31771337 </i>
    <i name="pawaedc"> -37291.79582930 </i>
    <i name="eentropy">      0.00140959 </i>
    <i name="bandstr">   -534.99805642 </i>
    <i name="atom">  26267.02126631 </i>
    <i name="e_fr_energy">   -752.18336719 </i>
    <i name="e_wo_entrp">   -752.18477678 </i>
    <i name="e_0_energy">   -752.18383705 </i>
   </energy>
  </scstep>
  <structure>
   <crystal>
    <varray name="basis" >
     <v>       8.42830000       0.00000000       0.00000000 </v>
     <v>       0.00000000      14.59820000       0.00000000 </v>
     <v>       0.00000000       0.00000000      16.58321000 </v>
    </varray>
    <i name="volume">   2040.36514222 </i>
    <varray name="rec_basis" >
     <v>       0.11864789       0.00000000       0.00000000 </v>
     <v>       0.00000000       0.06850160       0.00000000 </v>
     <v>       0.00000000       0.00000000       0.06030196 </v>
    </varray>
   </crystal>
   <varray name="positions" >
    <v>       0.83333500       0.67754300       0.78930800 </v>
    <v>       0.00000000       0.84420700       0.78999400 </v>
    <v>       0.16666700       0.67754300       0.78930800 </v>
    <v>       0.66666800       0.84420700       0.78999400 </v>
    <v>       0.50000100       0.67754300       0.78930800 </v>
    <v>       0.33333400       0.84420700       0.78999400 </v>
    <v>       0.68026100       0.83333600       0.08660300 </v>
    <v>       0.01359400       0.83333600       0.18854400 </v>
    <v>       0.18025900       0.00000000       0.08660300 </v>
    <v>       0.51359300       0.00000000       0.18854400 </v>
    <v>       0.68026100       0.16666700       0.08660300 </v>
    <v>       0.18025900       0.33333300       0.08660300 </v>
    <v>       0.51359300       0.33333300       0.18854400 </v>
    <v>       0.01359400       0.16666700       0.18854400 </v>
    <v>       0.68026100       0.50000000       0.08660300 </v>
    <v>       0.18025900       0.66666600       0.08660300 </v>
    <v>       0.51359300       0.66666600       0.18854400 </v>
    <v>       0.01359400       0.50000000       0.18854400 </v>
    <v>       0.01359400       0.16666700       0.32676700 </v>
    <v>       0.84692800       0.33333300       0.21815900 </v>
    <v>       0.51359300       0.66666600       0.32676700 </v>
    <v>       0.34692800       0.50000000       0.21815900 </v>
    <v>       0.01359400       0.50000000       0.32676700 </v>
    <v>       0.51359300       0.00000000       0.32676700 </v>
    <v>       0.51359300       0.33333300       0.32676700 </v>
    <v>       0.01359400       0.83333600       0.32676700 </v>
    <v>       0.68026100       0.16666700       0.45811500 </v>
    <v>       0.51359300       0.33333300       0.53966700 </v>
    <v>       0.68026100       0.50000000       0.45811500 </v>
    <v>       0.56895200       0.92747100       0.47125700 </v>
    <v>       0.51359300       0.66666600       0.53966700 </v>
    <v>       0.34692800       0.50000000       0.35638700 </v>
    <v>       0.34692800       0.83333600       0.35638700 </v>
    <v>       0.34692800       0.16666700       0.35638700 </v>
    <v>       0.84692800       0.66666700       0.35638700 </v>
    <v>       0.84692800       0.66666700       0.21815900 </v>
    <v>       0.34692800       0.83333600       0.21815900 </v>
    <v>       0.34692800       0.16666700       0.21815900 </v>
    <v>       0.84692800       0.00000000       0.21815900 </v>
    <v>       0.84692800       0.33333300       0.35638700 </v>
    <v>       0.34692800       0.83333600       0.05698300 </v>
    <v>       0.34692800       0.16666700       0.05698300 </v>
    <v>       0.34692800       0.50000000       0.05698300 </v>
    <v>       0.84692800       0.33333300       0.05698300 </v>
    <v>       0.84692800       0.66666700       0.05698300 </v>
    <v>       0.84692800       0.00000000       0.05698300 </v>
    <v>       0.84692800       0.00000000       0.35638700 </v>
    <v>       0.00000000       0.06715700       0.64645100 </v>
    <v>       0.50000100       0.23382400       0.64714600 </v>
    <v>       0.00000000       0.40049000       0.64782600 </v>
    <v>       0.50000100       0.56715700       0.64851200 </v>
    <v>       0.00000000       0.73382300       0.64920200 </v>
    <v>       0.50000100       0.90048800       0.64988900 </v>
    <v>       0.66666800       0.06715700       0.64645100 </v>
    <v>       0.16666700       0.23382400       0.64714600 </v>
    <v>       0.66666800       0.40049000       0.64782600 </v>
    <v>       0.16666700       0.56715700       0.64851200 </v>
    <v>       0.66666800       0.73382300       0.64920200 </v>
    <v>       0.16666700       0.90048800       0.64988900 </v>
    <v>       0.33333400       0.06715700       0.64645100 </v>
    <v>       0.83333500       0.23382400       0.64714600 </v>
    <v>       0.00000000       0.95459700       0.93078000 </v>
    <v>       0.33333400       0.40049000       0.64782600 </v>
    <v>       0.83333500       0.56715700       0.64851200 </v>
    <v>       0.50000100       0.78792600       0.93010000 </v>
    <v>       0.33333400       0.73382300       0.64920200 </v>
    <v>       0.00000000       0.62126200       0.92941400 </v>
    <v>       0.83333500       0.90048800       0.64988900 </v>
    <v>       0.50000100       0.45459500       0.92872500 </v>
    <v>       0.00000000       0.28792900       0.92803900 </v>
    <v>       0.50000100       0.12126200       0.92735000 </v>
    <v>       0.66666800       0.95459700       0.93078000 </v>
    <v>       0.16666700       0.78792600       0.93010000 </v>
    <v>       0.66666800       0.62126200       0.92941400 </v>
    <v>       0.16666700       0.45459500       0.92872500 </v>
    <v>       0.66666800       0.28792900       0.92803900 </v>
    <v>       0.16666700       0.12126200       0.92735000 </v>
    <v>       0.33333400       0.95459700       0.93078000 </v>
    <v>       0.83333500       0.78792600       0.93010000 </v>
    <v>       0.33333400       0.62126200       0.92941400 </v>
    <v>       0.83333500       0.45459500       0.92872500 </v>
    <v>       0.33333400       0.28792900       0.92803900 </v>
    <v>       0.50000100       0.01087700       0.78655700 </v>
    <v>       0.83333500       0.01087700       0.78655700 </v>
    <v>       0.16666700       0.01087700       0.78655700 </v>
    <v>       0.83333500       0.12126200       0.92735000 </v>
    <v>       0.66666800       0.17754300       0.78724600 </v>
    <v>       0.00000000       0.17754300       0.78724600 </v>
    <v>       0.33333400       0.17754300       0.78724600 </v>
    <v>       0.83333500       0.34421000       0.78793300 </v>
    <v>       0.16666700       0.34421000       0.78793300 </v>
    <v>       0.66666800       0.51087600       0.78861900 </v>
    <v>       0.00000000       0.51087600       0.78861900 </v>
    <v>       0.50000100       0.34421000       0.78793300 </v>
    <v>       0.33333400       0.51087600       0.78861900 </v>
    <v>       0.69385400       0.94897300       0.13757100 </v>
    <v>       0.84692800       0.76871800       0.13757100 </v>
    <v>       0.50000000       0.78230900       0.13757100 </v>
    <v>       0.00000000       0.94897300       0.13757100 </v>
    <v>       0.19385400       0.11564200       0.13757100 </v>
    <v>       0.34692800       0.93538200       0.13757100 </v>
    <v>       0.69385400       0.28230900       0.13757100 </v>
    <v>       0.84692800       0.10204900       0.13757100 </v>
    <v>       0.50000000       0.11564300       0.13757100 </v>
    <v>       0.00000000       0.28230900       0.13757100 </v>
    <v>       0.19385400       0.44897600       0.13757100 </v>
    <v>       0.34692800       0.26871500       0.13757100 </v>
    <v>       0.69385400       0.61564200       0.13757100 </v>
    <v>       0.84692800       0.43538200       0.13757100 </v>
    <v>       0.50000000       0.44897600       0.13757100 </v>
    <v>       0.00000000       0.61564200       0.13757100 </v>
    <v>       0.19385400       0.78230900       0.13757100 </v>
    <v>       0.34692800       0.60204800       0.13757100 </v>
    <v>       0.86052100       0.21769100       0.26913200 </v>
    <v>       0.16666700       0.21769100       0.26913200 </v>
    <v>       0.01359400       0.06461800       0.26913200 </v>
    <v>       0.51359300       0.56461800       0.26913200 </v>
    <v>       0.36052100       0.71769100       0.26913200 </v>
    <v>       0.66666700       0.71769100       0.26913200 </v>
    <v>       0.01359400       0.39795100       0.26913200 </v>
    <v>       0.16666700       0.55102500       0.26913200 </v>
    <v>       0.86052100       0.55102500       0.26913200 </v>
    <v>       0.51359300       0.89795300       0.26913200 </v>
    <v>       0.36052100       0.05102500       0.26913200 </v>
    <v>       0.66666700       0.05102500       0.26913200 </v>
    <v>       0.51359300       0.23128500       0.26913200 </v>
    <v>       0.36052100       0.38435800       0.26913200 </v>
    <v>       0.66666700       0.38435800       0.26913200 </v>
    <v>       0.16666700       0.88435600       0.26913200 </v>
    <v>       0.86052100       0.88435600       0.26913200 </v>
    <v>       0.01359400       0.73128200       0.26913200 </v>
    <v>       0.50734300       0.08999500       0.40984600 </v>
    <v>       0.66346100       0.26827800       0.39211000 </v>
    <v>       0.18550600       0.42958900       0.39559700 </v>
    <v>       0.49899000       0.42768300       0.40817600 </v>
    <v>       0.69385400       0.61564200       0.49888900 </v>
    <v>       0.05341600       0.63734400       0.40240300 </v>
    <v>       0.20802900       0.94701400       0.40909200 </v>
    <v>       0.06435000       0.92266200       0.41062800 </v>
    <v>       0.00000000       0.94897300       0.49888900 </v>
    <v>       0.18548000       0.08179800       0.38605500 </v>
    <v>       0.16571800       0.77223900       0.38400600 </v>
    <v>       0.87867100       0.78180900       0.40160900 </v>
    <v>       0.34400100       0.28704100       0.38917400 </v>
   </varray>
  </structure>
  <varray name="forces" >
   <v>      -0.06779012       0.01820280       0.19097079 </v>
   <v>      -0.01298495      -0.07047145      -0.14892563 </v>
   <v>       0.14651372       0.04717865       0.24997297 </v>
   <v>       0.10859704       0.08619115       0.16640191 </v>
   <v>      -0.15266658       0.02239622      -0.08527403 </v>
   <v>      -0.12962866      -0.01152096       0.21107570 </v>
   <v>      -0.00646706      -0.03234810       0.35681715 </v>
   <v>       0.32788909      -0.44675197      -0.83606576 </v>
   <v>      -0.07775513      -0.03709598       0.51184556 </v>
   <v>      -0.25959912       0.34284040      -1.59726895 </v>
   <v>      -0.01559350       0.05086764       0.46441858 </v>
   <v>       0.02726227      -0.03858041       0.61173728 </v>
   <v>      -0.39635859      -0.15133439      -0.81425693 </v>
   <v>       0.36247089       0.06474923      -1.40976770 </v>
   <v>      -0.07189680      -0.06697660       0.37686862 </v>
   <v>      -0.07875033      -0.01291002       0.57713422 </v>
   <v>      -0.21583569       0.11554588      -1.83339238 </v>
   <v>       0.38098406       0.01767357      -1.48429778 </v>
   <v>       2.30190375      -1.58114284       5.08977730 </v>
   <v>      -0.12270247       0.24960901      -3.09732515 </v>
   <v>      -0.56962086       0.26829207       4.26853516 </v>
   <v>      -0.52347967      -0.73316063      -2.91525349 </v>
   <v>       2.84836676       0.15869794       6.95137414 </v>
   <v>      -0.09413757       1.71823521       4.32175588 </v>
   <v>      -1.65077590      -0.94221485       6.67281796 </v>
   <v>      -0.11759834      -3.25280129       6.00926873 </v>
   <v>      -1.05201301      -0.28919406      -1.29110502 </v>
   <v>      -0.72438695       0.85066962      -4.76095982 </v>
   <v>      -0.35436303      -0.92260386      -0.66050026 </v>
   <v>       0.40729754      -0.10068834       0.52530677 </v>
   <v>       0.25690394       0.70462954      -3.77756550 </v>
   <v>      -1.52320272      -2.75146123       3.74929171 </v>
   <v>      -2.42851828      -0.76473722       3.78085984 </v>
   <v>      -0.85765318      -0.12679843       4.73563670 </v>
   <v>       3.66428113       2.55584742       5.09821506 </v>
   <v>       0.96496750       0.55034999      -2.90696546 </v>
   <v>      -0.80679830       0.02822500      -3.03853556 </v>
   <v>       0.13850380       0.32193705      -2.51099235 </v>
   <v>       0.15433697      -0.07101891      -3.09762601 </v>
   <v>      -1.36440407      -0.19335232       3.29137606 </v>
   <v>      -0.20297637       0.22771075       0.98872195 </v>
   <v>      -0.20569563       0.19546678       0.86682891 </v>
   <v>      -0.13545757       0.15662974       0.95629366 </v>
   <v>      -0.11010179       0.08645066       0.82695365 </v>
   <v>      -0.09415802       0.12588983       0.89712405 </v>
   <v>      -0.06003065       0.24663823       0.92039352 </v>
   <v>       0.37862614      -0.02716571       3.48201943 </v>
   <v>       0.04703647      -0.03452110      -0.59661672 </v>
   <v>      -0.19382985      -1.75691643       1.45686850 </v>
   <v>       0.09363923       0.13708821      -0.27257912 </v>
   <v>      -0.45368093      -1.48837940       1.97637518 </v>
   <v>       0.00841829       0.03860446      -0.32798460 </v>
   <v>       0.12916956       0.15124484      -0.77031306 </v>
   <v>       0.08133889       0.13936652      -0.56057892 </v>
   <v>      -0.19372566      -0.11678041      -0.14673780 </v>
   <v>       1.11520874       0.73133586       0.48093385 </v>
   <v>      -0.27922896      -0.15195524      -0.24160068 </v>
   <v>       1.00625052       0.88310787       1.02457469 </v>
   <v>      -0.29663288      -0.00196977      -0.73382104 </v>
   <v>      -0.13358968       0.19256502      -0.08237257 </v>
   <v>       0.09767443      -0.06543298      -0.46318561 </v>
   <v>       0.56340469      -0.09036107      -0.35106968 </v>
   <v>      -0.75616890       0.38185103       0.18383083 </v>
   <v>       0.24354022      -0.00593423      -0.30175715 </v>
   <v>       0.42875010      -0.16216456      -0.22229653 </v>
   <v>      -0.58957014       0.31850877       0.06307950 </v>
   <v>       0.53307354      -0.24638366      -0.27031384 </v>
   <v>       0.24547281      -0.01023412      -0.64179339 </v>
   <v>       0.40727946      -0.11529598      -0.27415343 </v>
   <v>       0.45706979      -0.15734195      -0.19462915 </v>
   <v>       0.37580509      -0.24082399      -0.21866964 </v>
   <v>      -0.24529437      -0.17669685      -0.11339818 </v>
   <v>      -0.14743412      -0.16501869      -0.06890216 </v>
   <v>      -0.18805426      -0.27238796      -0.06560666 </v>
   <v>      -0.22997408      -0.11341361      -0.09774813 </v>
   <v>      -0.08804559      -0.21170606       0.04731290 </v>
   <v>      -0.18809637      -0.09456225       0.00549018 </v>
   <v>      -0.17291844       0.28019616       0.06146627 </v>
   <v>      -0.20293284       0.20922292       0.06310920 </v>
   <v>      -0.18623143       0.08409288       0.16276829 </v>
   <v>      -0.15007343       0.25886910       0.18333145 </v>
   <v>      -0.24824386       0.21924266       0.10419973 </v>
   <v>      -0.00572175      -0.10031739       0.12471706 </v>
   <v>      -0.19414222      -0.01441322       0.31247627 </v>
   <v>       0.25690826       0.02326370       0.38220069 </v>
   <v>      -0.11248356       0.22568388       0.27218030 </v>
   <v>       0.15570475       0.04107465       0.09964473 </v>
   <v>       0.03490557       0.05868262      -0.19010627 </v>
   <v>      -0.17555956       0.09010336       0.09717610 </v>
   <v>      -0.02422759      -0.00556579       0.10732051 </v>
   <v>       0.10934244      -0.00793852       0.21240179 </v>
   <v>       0.11028901      -0.04852069       0.25655633 </v>
   <v>       0.02245334      -0.13042226      -0.19294349 </v>
   <v>      -0.14172313      -0.02756362      -0.03451665 </v>
   <v>      -0.05716304      -0.01244511       0.17378562 </v>
   <v>      -0.08440951      -0.06904030      -0.63939697 </v>
   <v>      -0.28832040       0.09227526      -1.04800880 </v>
   <v>       0.15290495      -0.06011605      -0.52578358 </v>
   <v>      -0.00343944      -0.04301078      -0.77339210 </v>
   <v>      -0.05795626      -0.14564613      -0.87754009 </v>
   <v>       0.12765143      -0.03094616      -0.69658885 </v>
   <v>       0.09233554      -0.05863919      -0.81712818 </v>
   <v>      -0.07300212       0.09508925      -0.76414650 </v>
   <v>       0.15505201      -0.07069355      -1.00333302 </v>
   <v>      -0.02944228      -0.07202190      -0.66632325 </v>
   <v>      -0.11181216      -0.11396369      -0.99037861 </v>
   <v>      -0.11342913      -0.01681690      -1.09350611 </v>
   <v>      -0.09596884       0.00765382      -0.48944699 </v>
   <v>      -0.01396924       0.09177175      -0.79487058 </v>
   <v>       0.21695723       0.14358833      -0.88903973 </v>
   <v>      -0.07215654      -0.17984997      -0.84820282 </v>
   <v>       0.16623778      -0.11848826      -0.99902728 </v>
   <v>       0.18257445       0.09060558      -0.56668797 </v>
   <v>       0.29497847       2.28026757      -0.43646893 </v>
   <v>       1.17743589      -1.26826153      -1.32105447 </v>
   <v>      -3.35603445      -1.51324031      -1.34777307 </v>
   <v>      -2.03053020      -1.03947079      -0.16727917 </v>
   <v>       1.03064580       2.08682881      -0.85602539 </v>
   <v>       1.67350608      -1.63530808      -0.21159293 </v>
   <v>      -2.88583353      -1.32067905      -1.19324949 </v>
   <v>       2.42779944      -1.11971832      -1.60121849 </v>
   <v>      -0.33319884       2.27136663      -0.38939719 </v>
   <v>      -2.10827242      -1.13636100      -0.39401855 </v>
   <v>       1.10070480       1.71131191      -1.51439775 </v>
   <v>       2.05123666      -1.58181294      -0.85680236 </v>
   <v>      -2.21561864      -1.83873878      -2.52412369 </v>
   <v>       0.69183109       3.41300019      -2.48712204 </v>
   <v>       2.67351627      -1.18184959      -0.89743835 </v>
   <v>       2.10293738      -0.66240249      -2.44525931 </v>
   <v>      -0.01499462       3.46477995      -0.68859180 </v>
   <v>      -3.04028635      -1.44218794      -3.52512739 </v>
   <v>       0.64499010       0.67633170       0.02054343 </v>
   <v>       1.96002757       0.15897776       1.55721992 </v>
   <v>      -1.36550281       3.41710994      -0.33847940 </v>
   <v>       2.13120989       3.00161272       1.19373630 </v>
   <v>      -0.28904485      -1.30368607      -0.60859185 </v>
   <v>      -2.46919248      -2.31890218      -0.74997343 </v>
   <v>       4.54995171       0.25827141      -0.22126015 </v>
   <v>      -3.85203161       1.16452972       1.90141008 </v>
   <v>      -0.51874403      -0.38651095       0.42029927 </v>
   <v>      -1.02217717       4.48723158       0.56063066 </v>
   <v>       3.31422624       0.32143971       1.34750851 </v>
   <v>      -2.28395375      -0.66378005      -0.40932300 </v>
   <v>       0.95711865      -2.86713303       1.36420048 </v>
  </varray>
  <varray name="stress" >
   <v>     -14.63560055      -5.53648679      -3.68170841 </v>
   <v>      -5.53648679     -51.33473487      -0.41839971 </v>
   <v>      -3.68170840      -0.41839970      52.44808633 </v>
  </varray>
  <energy>
   <i name="e_fr_energy">   -752.18336719 </i>
   <i name="e_wo_entrp">   -752.18383705 </i>
   <i name="e_0_energy">      0.00140959 </i>
  </energy>
  <time name="totalsc">  122.79  123.87</time>
 </calculation>
 <calculation>
  <scstep>
   <time name="dav">    6.15    6.15</time>
   <time name="total">    6.71    6.72</time>
   <energy>
    <i name="alphaZ">    291.84107950 </i>
    <i name="ewald">   4293.64682234 </i>
    <i name="hartreedc"> -32950.80628335 </i>
    <i name="XCdc">  -1055.85074358 </i>
    <i name="pawpsdc">  40230.20846711 </i>
    <i name="pawaedc"> -37292.68999681 </i>
    <i name="eentropy">      0.00131036 </i>
    <i name="bandstr">   -537.32047199 </i>
    <i name="atom">  26267.02126631 </i>
    <i name="e_fr_energy">   -753.94855011 </i>
    <i name="e_wo_entrp">   -753.94986047 </i>
    <i name="e_0_energy">   -753.94898690 </i>
   </energy>
  </scstep>
  <scstep>
   <time name="diag">    1.05    1.06</time>
   <time name="diis">    3.22    3.25</time>
   <time name="orth">    0.26    0.26</time>
   <time name="total">    5.11    5.16</time>
   <energy>
    <i name="e_fr_energy">   -754.05247567 </i>
    <i name="e_wo_entrp">   -754.05781891 </i>
    <i name="e_0_energy">   -754.05425675 </i>
   </energy>
  </scstep>
  <scstep>
   <time name="diag">    1.06    1.07</time>
   <time name="diis">    3.13    3.15</time>
   <time name="orth">    0.26    0.26</time>
   <time name="total">    5.00    5.05</time>
   <energy>
    <i name="e_fr_energy">   -754.04974623 </i>
    <i name="e_wo_entrp">   -754.04662975 </i>
    <i name="e_0_energy">   -754.04870740 </i>
   </energy>
  </scstep>
  <scstep>
   <time name="diag">    1.05    1.06</time>
   <time name="diis">    3.00    3.05</time>
   <time name="orth">    0.26    0.26</time>
   <time name="total">    4.86    4.95</time>
   <energy>
    <i name="e_fr_energy">   -753.99300700 </i>
    <i name="e_wo_entrp">   -753.99821037 </i>
    <i name="e_0_energy">   -753.99474145 </i>
   </energy>
  </scstep>
  <scstep>
   <time name="diag">    1.05    1.06</time>
   <time name="diis">    3.05    3.08</time>
   <time name="orth">    0.26    0.26</time>
   <time name="total">    4.92    4.98</time>
   <energy>
    <i name="e_fr_energy">   -753.99056652 </i>
    <i name="e_wo_entrp">   -753.99327876 </i>
    <i name="e_0_energy">   -753.99147060 </i>
   </energy>
  </scstep>
  <scstep>
   <time name="diag">    1.07    1.08</time>
   <time name="diis">    2.88    2.91</time>
   <time name="orth">    0.26    0.26</time>
   <time name="total">    4.76    4.81</time>
   <energy>
    <i name="e_fr_energy">   -753.98764121 </i>
    <i name="e_wo_entrp">   -753.98913163 </i>
    <i name="e_0_energy">   -753.98813801 </i>
   </energy>
  </scstep>
  <scstep>
   <time name="diag">    1.06    1.06</time>
   <time name="diis">    2.35    2.37</time>
   <time name="orth">    0.26    0.26</time>
   <time name="total">    4.22    4.26</time>
   <energy>
    <i name="e_fr_energy">   -753.98618460 </i>
    <i name="e_wo_entrp">   -753.99078148 </i>
    <i name="e_0_energy">   -753.98771689 </i>
   </energy>
  </scstep>
  <scstep>
   <time name="diag">    1.04    1.06</time>
   <time name="diis">    2.23    2.26</time>
   <time name="orth">    0.25    0.26</time>
   <time name="total">    4.08    4.15</time>
   <energy>
    <i name="e_fr_energy">   -753.98510115 </i>
    <i name="e_wo_entrp">   -753.98744281 </i>
    <i name="e_0_energy">   -753.98588170 </i>
   </energy>
  </scstep>
  <scstep>
   <time name="diag">    1.06    1.06</time>
   <time name="diis">    1.90    1.92</time>
   <time name="orth">    0.26    0.26</time>
   <time name="total">    3.38    3.41</time>
   <energy>
    <i name="alphaZ">    291.84107950 </i>
    <i name="ewald">   4293.64682234 </i>
    <i name="hartreedc"> -32949.07036592 </i>
    <i name="XCdc">  -1055.84277040 </i>
    <i name="pawpsdc">  40175.20633600 </i>
    <i name="pawaedc"> -37237.64925520 </i>
    <i name="eentropy">      0.00294097 </i>
    <i name="bandstr">   -539.14113711 </i>
    <i name="atom">  26267.02126631 </i>
    <i name="e_fr_energy">   -753.98508350 </i>
    <i name="e_wo_entrp">   -753.98802447 </i>
    <i name="e_0_energy">   -753.98606382 </i>
   </energy>
  </scstep>
  <structure>
   <crystal>
    <varray name="basis" >
     <v>       8.42830000       0.00000000       0.00000000 </v>
     <v>       0.00000000      14.59820000       0.00000000 </v>
     <v>       0.00000000       0.00000000      16.58321000 </v>
    </varray>
    <i name="volume">   2040.36514222 </i>
    <varray name="rec_basis" >
     <v>       0.11864789       0.00000000       0.00000000 </v>
     <v>       0.00000000       0.06850160       0.00000000 </v>
     <v>       0.00000000       0.00000000       0.06030196 </v>
    </varray>
   </crystal>
   <varray name="positions" >
    <v>       0.83333500       0.67754300       0.78930800 </v>
    <v>       0.00000000       0.84420700       0.78999400 </v>
    <v>       0.16666700       0.67754300       0.78930800 </v>
    <v>       0.66666800       0.84420700       0.78999400 </v>
    <v>       0.50000100       0.67754300       0.78930800 </v>
    <v>       0.33333400       0.84420700       0.78999400 </v>
    <v>       0.68026100       0.83333600       0.08660300 </v>
    <v>       0.01359400       0.83333600       0.18854400 </v>
    <v>       0.18025900       0.00000000       0.08660300 </v>
    <v>       0.51359300       0.00000000       0.18854400 </v>
    <v>       0.68026100       0.16666700       0.08660300 </v>
    <v>       0.18025900       0.33333300       0.08660300 </v>
    <v>       0.51359300       0.33333300       0.18854400 </v>
    <v>       0.01359400       0.16666700       0.18854400 </v>
    <v>       0.68026100       0.50000000       0.08660300 </v>
    <v>       0.18025900       0.66666600       0.08660300 </v>
    <v>       0.51359300       0.66666600       0.18854400 </v>
    <v>       0.01359400       0.50000000       0.18854400 </v>
    <v>       0.01359400       0.16666700       0.32676700 </v>
    <v>       0.84692800       0.33333300       0.21815900 </v>
    <v>       0.51359300       0.66666600       0.32676700 </v>
    <v>       0.34692800       0.50000000       0.21815900 </v>
    <v>       0.01359400       0.50000000       0.32676700 </v>
    <v>       0.51359300       0.00000000       0.32676700 </v>
    <v>       0.51359300       0.33333300       0.32676700 </v>
    <v>       0.01359400       0.83333600       0.32676700 </v>
    <v>       0.67423939       0.16571130       0.45435901 </v>
    <v>       0.50944669       0.33614421       0.52581677 </v>
    <v>       0.67823267       0.49695107       0.45619352 </v>
    <v>       0.57128333       0.92713826       0.47278518 </v>
    <v>       0.51506349       0.66899459       0.52867758 </v>
    <v>       0.34692800       0.50000000       0.35638700 </v>
    <v>       0.34692800       0.83333600       0.35638700 </v>
    <v>       0.34692800       0.16666700       0.35638700 </v>
    <v>       0.84692800       0.66666700       0.35638700 </v>
    <v>       0.84692800       0.66666700       0.21815900 </v>
    <v>       0.34692800       0.83333600       0.21815900 </v>
    <v>       0.34692800       0.16666700       0.21815900 </v>
    <v>       0.84692800       0.00000000       0.21815900 </v>
    <v>       0.84692800       0.33333300       0.35638700 </v>
    <v>       0.34692800       0.83333600       0.05698300 </v>
    <v>       0.34692800       0.16666700       0.05698300 </v>
    <v>       0.34692800       0.50000000       0.05698300 </v>
    <v>       0.84692800       0.33333300       0.05698300 </v>
    <v>       0.84692800       0.66666700       0.05698300 </v>
    <v>       0.84692800       0.00000000       0.05698300 </v>
    <v>       0.84692800       0.00000000       0.35638700 </v>
    <v>       0.00000000       0.06715700       0.64645100 </v>
    <v>       0.50000100       0.23382400       0.64714600 </v>
    <v>       0.00000000       0.40049000       0.64782600 </v>
    <v>       0.50000100       0.56715700       0.64851200 </v>
    <v>       0.00000000       0.73382300       0.64920200 </v>
    <v>       0.50000100       0.90048800       0.64988900 </v>
    <v>       0.66666800       0.06715700       0.64645100 </v>
    <v>       0.16666700       0.23382400       0.64714600 </v>
    <v>       0.66666800       0.40049000       0.64782600 </v>
    <v>       0.16666700       0.56715700       0.64851200 </v>
    <v>       0.66666800       0.73382300       0.64920200 </v>
    <v>       0.16666700       0.90048800       0.64988900 </v>
    <v>       0.33333400       0.06715700       0.64645100 </v>
    <v>       0.83333500       0.23382400       0.64714600 </v>
    <v>       0.00000000       0.95459700       0.93078000 </v>
    <v>       0.33333400       0.40049000       0.64782600 </v>
    <v>       0.83333500       0.56715700       0.64851200 </v>
    <v>       0.50000100       0.78792600       0.93010000 </v>
    <v>       0.33333400       0.73382300       0.64920200 </v>
    <v>       0.00000000       0.62126200       0.92941400 </v>
    <v>       0.83333500       0.90048800       0.64988900 </v>
    <v>       0.50000100       0.45459500       0.92872500 </v>
    <v>       0.00000000       0.28792900       0.92803900 </v>
    <v>       0.50000100       0.12126200       0.92735000 </v>
    <v>       0.66666800       0.95459700       0.93078000 </v>
    <v>       0.16666700       0.78792600       0.93010000 </v>
    <v>       0.66666800       0.62126200       0.92941400 </v>
    <v>       0.16666700       0.45459500       0.92872500 </v>
    <v>       0.66666800       0.28792900       0.92803900 </v>
    <v>       0.16666700       0.12126200       0.92735000 </v>
    <v>       0.33333400       0.95459700       0.93078000 </v>
    <v>       0.83333500       0.78792600       0.93010000 </v>
    <v>       0.33333400       0.62126200       0.92941400 </v>
    <v>       0.83333500       0.45459500       0.92872500 </v>
    <v>       0.33333400       0.28792900       0.92803900 </v>
    <v>       0.50000100       0.01087700       0.78655700 </v>
    <v>       0.83333500       0.01087700       0.78655700 </v>
    <v>       0.16666700       0.01087700       0.78655700 </v>
    <v>       0.83333500       0.12126200       0.92735000 </v>
    <v>       0.66666800       0.17754300       0.78724600 </v>
    <v>       0.00000000       0.17754300       0.78724600 </v>
    <v>       0.33333400       0.17754300       0.78724600 </v>
    <v>       0.83333500       0.34421000       0.78793300 </v>
    <v>       0.16666700       0.34421000       0.78793300 </v>
    <v>       0.66666800       0.51087600       0.78861900 </v>
    <v>       0.00000000       0.51087600       0.78861900 </v>
    <v>       0.50000100       0.34421000       0.78793300 </v>
    <v>       0.33333400       0.51087600       0.78861900 </v>
    <v>       0.69385400       0.94897300       0.13757100 </v>
    <v>       0.84692800       0.76871800       0.13757100 </v>
    <v>       0.50000000       0.78230900       0.13757100 </v>
    <v>       0.00000000       0.94897300       0.13757100 </v>
    <v>       0.19385400       0.11564200       0.13757100 </v>
    <v>       0.34692800       0.93538200       0.13757100 </v>
    <v>       0.69385400       0.28230900       0.13757100 </v>
    <v>       0.84692800       0.10204900       0.13757100 </v>
    <v>       0.50000000       0.11564300       0.13757100 </v>
    <v>       0.00000000       0.28230900       0.13757100 </v>
    <v>       0.19385400       0.44897600       0.13757100 </v>
    <v>       0.34692800       0.26871500       0.13757100 </v>
    <v>       0.69385400       0.61564200       0.13757100 </v>
    <v>       0.84692800       0.43538200       0.13757100 </v>
    <v>       0.50000000       0.44897600       0.13757100 </v>
    <v>       0.00000000       0.61564200       0.13757100 </v>
    <v>       0.19385400       0.78230900       0.13757100 </v>
    <v>       0.34692800       0.60204800       0.13757100 </v>
    <v>       0.86052100       0.21769100       0.26913200 </v>
    <v>       0.16666700       0.21769100       0.26913200 </v>
    <v>       0.01359400       0.06461800       0.26913200 </v>
    <v>       0.51359300       0.56461800       0.26913200 </v>
    <v>       0.36052100       0.71769100       0.26913200 </v>
    <v>       0.66666700       0.71769100       0.26913200 </v>
    <v>       0.01359400       0.39795100       0.26913200 </v>
    <v>       0.16666700       0.55102500       0.26913200 </v>
    <v>       0.86052100       0.55102500       0.26913200 </v>
    <v>       0.51359300       0.89795300       0.26913200 </v>
    <v>       0.36052100       0.05102500       0.26913200 </v>
    <v>       0.66666700       0.05102500       0.26913200 </v>
    <v>       0.51359300       0.23128500       0.26913200 </v>
    <v>       0.36052100       0.38435800       0.26913200 </v>
    <v>       0.66666700       0.38435800       0.26913200 </v>
    <v>       0.16666700       0.88435600       0.26913200 </v>
    <v>       0.86052100       0.88435600       0.26913200 </v>
    <v>       0.01359400       0.73128200       0.26913200 </v>
    <v>       0.50734300       0.08999500       0.40984600 </v>
    <v>       0.66346100       0.26827800       0.39211000 </v>
    <v>       0.18550600       0.42958900       0.39559700 </v>
    <v>       0.49899000       0.42768300       0.40817600 </v>
    <v>       0.69219954       0.61133371       0.49711853 </v>
    <v>       0.05341600       0.63734400       0.40240300 </v>
    <v>       0.20802900       0.94701400       0.40909200 </v>
    <v>       0.06435000       0.92266200       0.41062800 </v>
    <v>      -0.00296923       0.94769570       0.50011170 </v>
    <v>       0.18548000       0.08179800       0.38605500 </v>
    <v>       0.16571800       0.77223900       0.38400600 </v>
    <v>       0.87867100       0.78180900       0.40160900 </v>
    <v>       0.34400100       0.28704100       0.38917400 </v>
   </varray>
  </structure>
  <varray name="forces" >
   <v>      -0.05477107       0.01475167       0.19815945 </v>
   <v>       0.00545137      -0.07019233      -0.14153099 </v>
   <v>       0.13907127       0.04263438       0.27204241 </v>
   <v>       0.10967332       0.08111272       0.17856072 </v>
   <v>      -0.14601698       0.03509598      -0.11045220 </v>
   <v>      -0.13384080       0.01098572       0.23364885 </v>
   <v>       0.00270417      -0.02675374       0.34662153 </v>
   <v>       0.33249057      -0.44549253      -0.84755954 </v>
   <v>      -0.09459987      -0.01947571       0.48546072 </v>
   <v>      -0.25965271       0.32825759      -1.63325270 </v>
   <v>      -0.00939294       0.03786072       0.43007904 </v>
   <v>       0.00691652      -0.02691482       0.57873988 </v>
   <v>      -0.39368667      -0.14227845      -0.90207227 </v>
   <v>       0.36429675       0.05537906      -1.45081144 </v>
   <v>      -0.06085060      -0.06423066       0.34196385 </v>
   <v>      -0.08995099      -0.01525064       0.55809765 </v>
   <v>      -0.22030322       0.13236094      -1.88634286 </v>
   <v>       0.38117514       0.02167096      -1.50972951 </v>
   <v>       2.30485857      -1.59606654       5.14448045 </v>
   <v>      -0.07536871       0.25874679      -3.14346744 </v>
[...]
       <r>     1.4130    67.8020   330.9666 </r>
       <r>     1.5249    75.0078   339.3578 </r>
       <r>     1.6367    62.8649   346.3906 </r>
       <r>     1.7486    70.7641   354.3071 </r>
       <r>     1.8605    90.6121   364.4439 </r>
       <r>     1.9723    63.0513   371.4976 </r>
       <r>     2.0842    55.0706   377.6584 </r>
       <r>     2.1961    62.3689   384.6357 </r>
       <r>     2.3080    89.4820   394.6461 </r>
       <r>     2.4198    70.5784   402.5418 </r>
       <r>     2.5317    37.5465   406.7422 </r>
       <r>     2.6436    42.6303   411.5113 </r>
       <r>     2.7554    50.5102   417.1619 </r>
       <r>     2.8673    47.2626   422.4492 </r>
       <r>     2.9792    55.6585   428.6758 </r>
       <r>     3.0911    46.7512   433.9059 </r>
       <r>     3.2029    40.5733   438.4449 </r>
       <r>     3.3148    43.6630   443.3295 </r>
       <r>     3.4267    40.4705   447.8570 </r>
       <r>     3.5385    42.2219   452.5804 </r>
       <r>     3.6504    45.7418   457.6976 </r>
       <r>     3.7623    53.2062   463.6499 </r>
       <r>     3.8742    57.3686   470.0678 </r>
       <r>     3.9860    42.6139   474.8350 </r>
       <r>     4.0979    44.6673   479.8320 </r>
       <r>     4.2098    54.5686   485.9367 </r>
       <r>     4.3216    38.2132   490.2116 </r>
       <r>     4.4335    34.9357   494.1199 </r>
       <r>     4.5454    41.7214   498.7873 </r>
       <r>     4.6573    46.3751   503.9754 </r>
       <r>     4.7691    44.5645   508.9609 </r>
       <r>     4.8810    32.4216   512.5879 </r>
       <r>     4.9929    29.5827   515.8973 </r>
       <r>     5.1047    24.5992   518.6493 </r>
       <r>     5.2166    32.1903   522.2505 </r>
       <r>     5.3285    26.4423   525.2086 </r>
       <r>     5.4404    42.6328   529.9780 </r>
       <r>     5.5522    49.5510   535.5213 </r>
       <r>     5.6641    42.2588   540.2488 </r>
       <r>     5.7760    43.8405   545.1533 </r>
       <r>     5.8878    43.3386   550.0017 </r>
       <r>     5.9997    37.1706   554.1600 </r>
       <r>     6.1116    42.1321   558.8733 </r>
       <r>     6.2235    40.1801   563.3683 </r>
       <r>     6.3353    44.6476   568.3631 </r>
       <r>     6.4472    55.7005   574.5944 </r>
       <r>     6.5591    54.8795   580.7338 </r>
       <r>     6.6709    36.5044   584.8176 </r>
       <r>     6.7828    36.1589   588.8628 </r>
       <r>     6.8947    43.6726   593.7485 </r>
       <r>     7.0066    37.5289   597.9469 </r>
       <r>     7.1184    24.7367   600.7142 </r>
       <r>     7.2303    33.9667   604.5141 </r>
       <r>     7.3422    36.6049   608.6091 </r>
       <r>     7.4540    35.7510   612.6086 </r>
       <r>     7.5659    33.6788   616.3763 </r>
       <r>     7.6778    27.2077   619.4201 </r>
       <r>     7.7897    44.9557   624.4493 </r>
       <r>     7.9015    41.2330   629.0621 </r>
       <r>     8.0134    49.9907   634.6546 </r>
       <r>     8.1253    40.7391   639.2121 </r>
       <r>     8.2371    38.6317   643.5339 </r>
       <r>     8.3490    36.0951   647.5719 </r>
       <r>     8.4609    36.7715   651.6856 </r>
       <r>     8.5727    39.9907   656.1594 </r>
       <r>     8.6846    24.5009   658.9004 </r>
       <r>     8.7965    35.3313   662.8529 </r>
       <r>     8.9084    25.9704   665.7582 </r>
       <r>     9.0202    24.3376   668.4809 </r>
       <r>     9.1321    32.3391   672.0987 </r>
       <r>     9.2440    43.6672   676.9838 </r>
       <r>     9.3558    30.1955   680.3618 </r>
       <r>     9.4677    31.8662   683.9267 </r>
       <r>     9.5796    54.6917   690.0452 </r>
       <r>     9.6915    48.2718   695.4454 </r>
       <r>     9.8033    62.7030   702.4601 </r>
       <r>     9.9152    68.0364   710.0714 </r>
       <r>    10.0271    48.7021   715.5197 </r>
       <r>    10.1389    64.2061   722.7025 </r>
       <r>    10.2508    56.7303   729.0490 </r>
       <r>    10.3627    39.4777   733.4655 </r>
       <r>    10.4746    14.0458   735.0368 </r>
       <r>    10.5864     8.5907   735.9978 </r>
       <r>    10.6983     0.1460   736.0142 </r>
       <r>    10.8102    -0.1255   736.0001 </r>
       <r>    10.9220    -0.0011   736.0000 </r>
       <r>    11.0339    -0.0000   736.0000 </r>
       <r>    11.1458    -0.0000   736.0000 </r>
       <r>    11.2577     0.0000   736.0000 </r>
       <r>    11.3695     0.0000   736.0000 </r>
       <r>    11.4814     0.0000   736.0000 </r>
       <r>    11.5933     0.0000   736.0000 </r>
       <r>    11.7051     0.0000   736.0000 </r>
       <r>    11.8170     0.0000   736.0000 </r>
       <r>    11.9289     0.0000   736.0000 </r>
       <r>    12.0408     0.0000   736.0000 </r>
      </set>
     </set>
    </array>
   </total>
  </dos>
 </calculation>
 <structure name="finalpos" >
  <crystal>
   <varray name="basis" >
    <v>       8.42830000       0.00000000       0.00000000 </v>
    <v>       0.00000000      14.59820000       0.00000000 </v>
    <v>       0.00000000       0.00000000      16.58321000 </v>
   </varray>
   <i name="volume">   2040.36514222 </i>
   <varray name="rec_basis" >
    <v>       0.11864789       0.00000000       0.00000000 </v>
    <v>       0.00000000       0.06850160       0.00000000 </v>
    <v>       0.00000000       0.00000000       0.06030196 </v>
   </varray>
  </crystal>
  <varray name="positions" >
   <v>       0.83333500       0.67754300       0.78930800 </v>
   <v>       0.00000000       0.84420700       0.78999400 </v>
   <v>       0.16666700       0.67754300       0.78930800 </v>
   <v>       0.66666800       0.84420700       0.78999400 </v>
   <v>       0.50000100       0.67754300       0.78930800 </v>
   <v>       0.33333400       0.84420700       0.78999400 </v>
   <v>       0.68026100       0.83333600       0.08660300 </v>
   <v>       0.01359400       0.83333600       0.18854400 </v>
   <v>       0.18025900       0.00000000       0.08660300 </v>
   <v>       0.51359300       0.00000000       0.18854400 </v>
   <v>       0.68026100       0.16666700       0.08660300 </v>
   <v>       0.18025900       0.33333300       0.08660300 </v>
   <v>       0.51359300       0.33333300       0.18854400 </v>
   <v>       0.01359400       0.16666700       0.18854400 </v>
   <v>       0.68026100       0.50000000       0.08660300 </v>
   <v>       0.18025900       0.66666600       0.08660300 </v>
   <v>       0.51359300       0.66666600       0.18854400 </v>
   <v>       0.01359400       0.50000000       0.18854400 </v>
   <v>       0.01359400       0.16666700       0.32676700 </v>
   <v>       0.84692800       0.33333300       0.21815900 </v>
   <v>       0.51359300       0.66666600       0.32676700 </v>
   <v>       0.34692800       0.50000000       0.21815900 </v>
   <v>       0.01359400       0.50000000       0.32676700 </v>
   <v>       0.51359300       0.00000000       0.32676700 </v>
   <v>       0.51359300       0.33333300       0.32676700 </v>
   <v>       0.01359400       0.83333600       0.32676700 </v>
   <v>       0.66157626       0.16370151       0.44646036 </v>
   <v>       0.50072721       0.34205603       0.49669043 </v>
   <v>       0.67396718       0.49053933       0.45215275 </v>
   <v>       0.57618599       0.92643851       0.47599888 </v>
   <v>       0.51815585       0.67389149       0.50556740 </v>
   <v>       0.34692800       0.50000000       0.35638700 </v>
   <v>       0.34692800       0.83333600       0.35638700 </v>
   <v>       0.34692800       0.16666700       0.35638700 </v>
   <v>       0.84692800       0.66666700       0.35638700 </v>
   <v>       0.84692800       0.66666700       0.21815900 </v>
   <v>       0.34692800       0.83333600       0.21815900 </v>
   <v>       0.34692800       0.16666700       0.21815900 </v>
   <v>       0.84692800       0.00000000       0.21815900 </v>
   <v>       0.84692800       0.33333300       0.35638700 </v>
   <v>       0.34692800       0.83333600       0.05698300 </v>
   <v>       0.34692800       0.16666700       0.05698300 </v>
   <v>       0.34692800       0.50000000       0.05698300 </v>
   <v>       0.84692800       0.33333300       0.05698300 </v>
   <v>       0.84692800       0.66666700       0.05698300 </v>
   <v>       0.84692800       0.00000000       0.05698300 </v>
   <v>       0.84692800       0.00000000       0.35638700 </v>
   <v>       0.00000000       0.06715700       0.64645100 </v>
   <v>       0.50000100       0.23382400       0.64714600 </v>
   <v>       0.00000000       0.40049000       0.64782600 </v>
   <v>       0.50000100       0.56715700       0.64851200 </v>
   <v>       0.00000000       0.73382300       0.64920200 </v>
   <v>       0.50000100       0.90048800       0.64988900 </v>
   <v>       0.66666800       0.06715700       0.64645100 </v>
   <v>       0.16666700       0.23382400       0.64714600 </v>
   <v>       0.66666800       0.40049000       0.64782600 </v>
   <v>       0.16666700       0.56715700       0.64851200 </v>
   <v>       0.66666800       0.73382300       0.64920200 </v>
   <v>       0.16666700       0.90048800       0.64988900 </v>
   <v>       0.33333400       0.06715700       0.64645100 </v>
   <v>       0.83333500       0.23382400       0.64714600 </v>
   <v>       0.00000000       0.95459700       0.93078000 </v>
   <v>       0.33333400       0.40049000       0.64782600 </v>
   <v>       0.83333500       0.56715700       0.64851200 </v>
   <v>       0.50000100       0.78792600       0.93010000 </v>
   <v>       0.33333400       0.73382300       0.64920200 </v>
   <v>       0.00000000       0.62126200       0.92941400 </v>
   <v>       0.83333500       0.90048800       0.64988900 </v>
   <v>       0.50000100       0.45459500       0.92872500 </v>
   <v>       0.00000000       0.28792900       0.92803900 </v>
   <v>       0.50000100       0.12126200       0.92735000 </v>
   <v>       0.66666800       0.95459700       0.93078000 </v>
   <v>       0.16666700       0.78792600       0.93010000 </v>
   <v>       0.66666800       0.62126200       0.92941400 </v>
   <v>       0.16666700       0.45459500       0.92872500 </v>
   <v>       0.66666800       0.28792900       0.92803900 </v>
   <v>       0.16666700       0.12126200       0.92735000 </v>
   <v>       0.33333400       0.95459700       0.93078000 </v>
   <v>       0.83333500       0.78792600       0.93010000 </v>
   <v>       0.33333400       0.62126200       0.92941400 </v>
   <v>       0.83333500       0.45459500       0.92872500 </v>
   <v>       0.33333400       0.28792900       0.92803900 </v>
   <v>       0.50000100       0.01087700       0.78655700 </v>
   <v>       0.83333500       0.01087700       0.78655700 </v>
   <v>       0.16666700       0.01087700       0.78655700 </v>
   <v>       0.83333500       0.12126200       0.92735000 </v>
   <v>       0.66666800       0.17754300       0.78724600 </v>
   <v>       0.00000000       0.17754300       0.78724600 </v>
   <v>       0.33333400       0.17754300       0.78724600 </v>
   <v>       0.83333500       0.34421000       0.78793300 </v>
   <v>       0.16666700       0.34421000       0.78793300 </v>
   <v>       0.66666800       0.51087600       0.78861900 </v>
   <v>       0.00000000       0.51087600       0.78861900 </v>
   <v>       0.50000100       0.34421000       0.78793300 </v>
   <v>       0.33333400       0.51087600       0.78861900 </v>
   <v>       0.69385400       0.94897300       0.13757100 </v>
   <v>       0.84692800       0.76871800       0.13757100 </v>
   <v>       0.50000000       0.78230900       0.13757100 </v>
   <v>       0.00000000       0.94897300       0.13757100 </v>
   <v>       0.19385400       0.11564200       0.13757100 </v>
   <v>       0.34692800       0.93538200       0.13757100 </v>
   <v>       0.69385400       0.28230900       0.13757100 </v>
   <v>       0.84692800       0.10204900       0.13757100 </v>
   <v>       0.50000000       0.11564300       0.13757100 </v>
   <v>       0.00000000       0.28230900       0.13757100 </v>
   <v>       0.19385400       0.44897600       0.13757100 </v>
   <v>       0.34692800       0.26871500       0.13757100 </v>
   <v>       0.69385400       0.61564200       0.13757100 </v>
   <v>       0.84692800       0.43538200       0.13757100 </v>
   <v>       0.50000000       0.44897600       0.13757100 </v>
   <v>       0.00000000       0.61564200       0.13757100 </v>
   <v>       0.19385400       0.78230900       0.13757100 </v>
   <v>       0.34692800       0.60204800       0.13757100 </v>
   <v>       0.86052100       0.21769100       0.26913200 </v>
   <v>       0.16666700       0.21769100       0.26913200 </v>
   <v>       0.01359400       0.06461800       0.26913200 </v>
   <v>       0.51359300       0.56461800       0.26913200 </v>
   <v>       0.36052100       0.71769100       0.26913200 </v>
   <v>       0.66666700       0.71769100       0.26913200 </v>
   <v>       0.01359400       0.39795100       0.26913200 </v>
   <v>       0.16666700       0.55102500       0.26913200 </v>
   <v>       0.86052100       0.55102500       0.26913200 </v>
   <v>       0.51359300       0.89795300       0.26913200 </v>
   <v>       0.36052100       0.05102500       0.26913200 </v>
   <v>       0.66666700       0.05102500       0.26913200 </v>
   <v>       0.51359300       0.23128500       0.26913200 </v>
   <v>       0.36052100       0.38435800       0.26913200 </v>
   <v>       0.66666700       0.38435800       0.26913200 </v>
   <v>       0.16666700       0.88435600       0.26913200 </v>
   <v>       0.86052100       0.88435600       0.26913200 </v>
   <v>       0.01359400       0.73128200       0.26913200 </v>
   <v>       0.50734300       0.08999500       0.40984600 </v>
   <v>       0.66346100       0.26827800       0.39211000 </v>
   <v>       0.18550600       0.42958900       0.39559700 </v>
   <v>       0.49899000       0.42768300       0.40817600 </v>
   <v>       0.68872029       0.60227360       0.49339532 </v>
   <v>       0.05341600       0.63734400       0.40240300 </v>
   <v>       0.20802900       0.94701400       0.40909200 </v>
   <v>       0.06435000       0.92266200       0.41062800 </v>
   <v>      -0.00921338       0.94500960       0.50268299 </v>
   <v>       0.18548000       0.08179800       0.38605500 </v>
   <v>       0.16571800       0.77223900       0.38400600 </v>
   <v>       0.87867100       0.78180900       0.40160900 </v>
   <v>       0.34400100       0.28704100       0.38917400 </v>
  </varray>
  <varray name="selective"  type="logical" >
   <v type="logical" >  F  F  F </v>
   <v type="logical" >  F  F  F </v>
   <v type="logical" >  F  F  F </v>
   <v type="logical" >  F  F  F </v>
   <v type="logical" >  F  F  F </v>
   <v type="logical" >  F  F  F </v>
   <v type="logical" >  F  F  F </v>
   <v type="logical" >  F  F  F </v>
   <v type="logical" >  F  F  F </v>
   <v type="logical" >  F  F  F </v>
   <v type="logical" >  F  F  F </v>
   <v type="logical" >  F  F  F </v>
   <v type="logical" >  F  F  F </v>
   <v type="logical" >  F  F  F </v>
   <v type="logical" >  F  F  F </v>
   <v type="logical" >  F  F  F </v>
   <v type="logical" >  F  F  F </v>
   <v type="logical" >  F  F  F </v>
   <v type="logical" >  F  F  F </v>
   <v type="logical" >  F  F  F </v>
   <v type="logical" >  F  F  F </v>
   <v type="logical" >  F  F  F </v>
   <v type="logical" >  F  F  F </v>
   <v type="logical" >  F  F  F </v>
   <v type="logical" >  F  F  F </v>
   <v type="logical" >  F  F  F </v>
   <v type="logical" >  T  T  T </v>
   <v type="logical" >  T  T  T </v>
   <v type="logical" >  T  T  T </v>
   <v type="logical" >  T  T  T </v>
   <v type="logical" >  T  T  T </v>
   <v type="logical" >  F  F  F </v>
   <v type="logical" >  F  F  F </v>
   <v type="logical" >  F  F  F </v>
   <v type="logical" >  F  F  F </v>
   <v type="logical" >  F  F  F </v>
   <v type="logical" >  F  F  F </v>
   <v type="logical" >  F  F  F </v>
   <v type="logical" >  F  F  F </v>
   <v type="logical" >  F  F  F </v>
   <v type="logical" >  F  F  F </v>
   <v type="logical" >  F  F  F </v>
   <v type="logical" >  F  F  F </v>
   <v type="logical" >  F  F  F </v>
   <v type="logical" >  F  F  F </v>
   <v type="logical" >  F  F  F </v>
   <v type="logical" >  F  F  F </v>
   <v type="logical" >  F  F  F </v>
   <v type="logical" >  F  F  F </v>
   <v type="logical" >  F  F  F </v>
   <v type="logical" >  F  F  F </v>
   <v type="logical" >  F  F  F </v>
   <v type="logical" >  F  F  F </v>
   <v type="logical" >  F  F  F </v>
   <v type="logical" >  F  F  F </v>
   <v type="logical" >  F  F  F </v>
   <v type="logical" >  F  F  F </v>
   <v type="logical" >  F  F  F </v>
   <v type="logical" >  F  F  F </v>
   <v type="logical" >  F  F  F </v>
   <v type="logical" >  F  F  F </v>
   <v type="logical" >  F  F  F </v>
   <v type="logical" >  F  F  F </v>
   <v type="logical" >  F  F  F </v>
   <v type="logical" >  F  F  F </v>
   <v type="logical" >  F  F  F </v>
   <v type="logical" >  F  F  F </v>
   <v type="logical" >  F  F  F </v>
   <v type="logical" >  F  F  F </v>
   <v type="logical" >  F  F  F </v>
   <v type="logical" >  F  F  F </v>
   <v type="logical" >  F  F  F </v>
   <v type="logical" >  F  F  F </v>
   <v type="logical" >  F  F  F </v>
   <v type="logical" >  F  F  F </v>
   <v type="logical" >  F  F  F </v>
   <v type="logical" >  F  F  F </v>
   <v type="logical" >  F  F  F </v>
   <v type="logical" >  F  F  F </v>
   <v type="logical" >  F  F  F </v>
   <v type="logical" >  F  F  F </v>
   <v type="logical" >  F  F  F </v>
   <v type="logical" >  F  F  F </v>
   <v type="logical" >  F  F  F </v>
   <v type="logical" >  F  F  F </v>
   <v type="logical" >  F  F  F </v>
   <v type="logical" >  F  F  F </v>
   <v type="logical" >  F  F  F </v>
   <v type="logical" >  F  F  F </v>
   <v type="logical" >  F  F  F </v>
   <v type="logical" >  F  F  F </v>
   <v type="logical" >  F  F  F </v>
   <v type="logical" >  F  F  F </v>
   <v type="logical" >  F  F  F </v>
   <v type="logical" >  F  F  F </v>
   <v type="logical" >  F  F  F </v>
   <v type="logical" >  F  F  F </v>
   <v type="logical" >  F  F  F </v>
   <v type="logical" >  F  F  F </v>
   <v type="logical" >  F  F  F </v>
   <v type="logical" >  F  F  F </v>
   <v type="logical" >  F  F  F </v>
   <v type="logical" >  F  F  F </v>
   <v type="logical" >  F  F  F </v>
   <v type="logical" >  F  F  F </v>
   <v type="logical" >  F  F  F </v>
   <v type="logical" >  F  F  F </v>
   <v type="logical" >  F  F  F </v>
   <v type="logical" >  F  F  F </v>
   <v type="logical" >  F  F  F </v>
   <v type="logical" >  F  F  F </v>
   <v type="logical" >  F  F  F </v>
   <v type="logical" >  F  F  F </v>
   <v type="logical" >  F  F  F </v>
   <v type="logical" >  F  F  F </v>
   <v type="logical" >  F  F  F </v>
   <v type="logical" >  F  F  F </v>
   <v type="logical" >  F  F  F </v>
   <v type="logical" >  F  F  F </v>
   <v type="logical" >  F  F  F </v>
   <v type="logical" >  F  F  F </v>
   <v type="logical" >  F  F  F </v>
   <v type="logical" >  F  F  F </v>
   <v type="logical" >  F  F  F </v>
   <v type="logical" >  F  F  F </v>
   <v type="logical" >  F  F  F </v>
   <v type="logical" >  F  F  F </v>
   <v type="logical" >  F  F  F </v>
   <v type="logical" >  F  F  F </v>
   <v type="logical" >  F  F  F </v>
   <v type="logical" >  F  F  F </v>
   <v type="logical" >  F  F  F </v>
   <v type="logical" >  F  F  F </v>
   <v type="logical" >  F  F  F </v>
   <v type="logical" >  F  F  F </v>
   <v type="logical" >  T  T  T </v>
   <v type="logical" >  F  F  F </v>
   <v type="logical" >  F  F  F </v>
   <v type="logical" >  F  F  F </v>
   <v type="logical" >  T  T  T </v>
   <v type="logical" >  F  F  F </v>
   <v type="logical" >  F  F  F </v>
   <v type="logical" >  F  F  F </v>
   <v type="logical" >  F  F  F </v>
  </varray>
  <nose>
   <v>      -3.00000000       0.00000000       0.00010000       0.00010000 </v>
  </nose>
 </structure>
</modeling>
