Al_Al2O3                                
           1
     8.428300    0.000000    0.000000
     0.000000   14.598200    0.000000
     0.000000    0.000000   16.583210
   Al   O 
  95  49
Direct configuration=     1
   0.83333500  0.67754300  0.78930800
   0.00000000  0.84420700  0.78999400
   0.16666700  0.67754300  0.78930800
   0.66666800  0.84420700  0.78999400
   0.50000100  0.67754300  0.78930800
   0.33333400  0.84420700  0.78999400
   0.68026100  0.83333600  0.08660300
   0.01359400  0.83333600  0.18854400
   0.18025900  0.00000000  0.08660300
   0.51359300  0.00000000  0.18854400
   0.68026100  0.16666700  0.08660300
   0.18025900  0.33333300  0.08660300
   0.51359300  0.33333300  0.18854400
   0.01359400  0.16666700  0.18854400
   0.68026100  0.50000000  0.08660300
   0.18025900  0.66666600  0.08660300
   0.51359300  0.66666600  0.18854400
   0.01359400  0.50000000  0.18854400
   0.01359400  0.16666700  0.32676700
   0.84692800  0.33333300  0.21815900
   0.51359300  0.66666600  0.32676700
   0.34692800  0.50000000  0.21815900
   0.01359400  0.50000000  0.32676700
   0.51359300  0.00000000  0.32676700
   0.51359300  0.33333300  0.32676700
   0.01359400  0.83333600  0.32676700
   0.68026100  0.16666700  0.45811500
   0.51359300  0.33333300  0.53966700
   0.68026100  0.50000000  0.45811500
   0.56895200  0.92747100  0.47125700
   0.51359300  0.66666600  0.53966700
   0.34692800  0.50000000  0.35638700
   0.34692800  0.83333600  0.35638700
   0.34692800  0.16666700  0.35638700
   0.84692800  0.66666700  0.35638700
   0.84692800  0.66666700  0.21815900
   0.34692800  0.83333600  0.21815900
   0.34692800  0.16666700  0.21815900
   0.84692800  0.00000000  0.21815900
   0.84692800  0.33333300  0.35638700
   0.34692800  0.83333600  0.05698300
   0.34692800  0.16666700  0.05698300
   0.34692800  0.50000000  0.05698300
   0.84692800  0.33333300  0.05698300
   0.84692800  0.66666700  0.05698300
   0.84692800  0.00000000  0.05698300
   0.84692800  0.00000000  0.35638700
   0.00000000  0.06715700  0.64645100
   0.50000100  0.23382400  0.64714600
   0.00000000  0.40049000  0.64782600
   0.50000100  0.56715700  0.64851200
   0.00000000  0.73382300  0.64920200
   0.50000100  0.90048800  0.64988900
   0.66666800  0.06715700  0.64645100
   0.16666700  0.23382400  0.64714600
   0.66666800  0.40049000  0.64782600
   0.16666700  0.56715700  0.64851200
   0.66666800  0.73382300  0.64920200
   0.16666700  0.90048800  0.64988900
   0.33333400  0.06715700  0.64645100
   0.83333500  0.23382400  0.64714600
   0.00000000  0.95459700  0.93078000
   0.33333400  0.40049000  0.64782600
   0.83333500  0.56715700  0.64851200
   0.50000100  0.78792600  0.93010000
   0.33333400  0.73382300  0.64920200
   0.00000000  0.62126200  0.92941400
   0.83333500  0.90048800  0.64988900
   0.50000100  0.45459500  0.92872500
   0.00000000  0.28792900  0.92803900
   0.50000100  0.12126200  0.92735000
   0.66666800  0.95459700  0.93078000
   0.16666700  0.78792600  0.93010000
   0.66666800  0.62126200  0.92941400
   0.16666700  0.45459500  0.92872500
   0.66666800  0.28792900  0.92803900
   0.16666700  0.12126200  0.92735000
   0.33333400  0.95459700  0.93078000
   0.83333500  0.78792600  0.93010000
   0.33333400  0.62126200  0.92941400
   0.83333500  0.45459500  0.92872500
   0.33333400  0.28792900  0.92803900
   0.50000100  0.01087700  0.78655700
   0.83333500  0.01087700  0.78655700
   0.16666700  0.01087700  0.78655700
   0.83333500  0.12126200  0.92735000
   0.66666800  0.17754300  0.78724600
   0.00000000  0.17754300  0.78724600
   0.33333400  0.17754300  0.78724600
   0.83333500  0.34421000  0.78793300
   0.16666700  0.34421000  0.78793300
   0.66666800  0.51087600  0.78861900
   0.00000000  0.51087600  0.78861900
   0.50000100  0.34421000  0.78793300
   0.33333400  0.51087600  0.78861900
   0.69385400  0.94897300  0.13757100
   0.84692800  0.76871800  0.13757100
   0.50000000  0.78230900  0.13757100
   0.00000000  0.94897300  0.13757100
   0.19385400  0.11564200  0.13757100
   0.34692800  0.93538200  0.13757100
   0.69385400  0.28230900  0.13757100
   0.84692800  0.10204900  0.13757100
   0.50000000  0.11564300  0.13757100
   0.00000000  0.28230900  0.13757100
   0.19385400  0.44897600  0.13757100
   0.34692800  0.26871500  0.13757100
   0.69385400  0.61564200  0.13757100
   0.84692800  0.43538200  0.13757100
   0.50000000  0.44897600  0.13757100
   0.00000000  0.61564200  0.13757100
   0.19385400  0.78230900  0.13757100
   0.34692800  0.60204800  0.13757100
   0.86052100  0.21769100  0.26913200
   0.16666700  0.21769100  0.26913200
   0.01359400  0.06461800  0.26913200
   0.51359300  0.56461800  0.26913200
   0.36052100  0.71769100  0.26913200
   0.66666700  0.71769100  0.26913200
   0.01359400  0.39795100  0.26913200
   0.16666700  0.55102500  0.26913200
   0.86052100  0.55102500  0.26913200
   0.51359300  0.89795300  0.26913200
   0.36052100  0.05102500  0.26913200
   0.66666700  0.05102500  0.26913200
   0.51359300  0.23128500  0.26913200
   0.36052100  0.38435800  0.26913200
   0.66666700  0.38435800  0.26913200
   0.16666700  0.88435600  0.26913200
   0.86052100  0.88435600  0.26913200
   0.01359400  0.73128200  0.26913200
   0.50734300  0.08999500  0.40984600
   0.66346100  0.26827800  0.39211000
   0.18550600  0.42958900  0.39559700
   0.49899000  0.42768300  0.40817600
   0.69385400  0.61564200  0.49888900
   0.05341600  0.63734400  0.40240300
   0.20802900  0.94701400  0.40909200
   0.06435000  0.92266200  0.41062800
   0.00000000  0.94897300  0.49888900
   0.18548000  0.08179800  0.38605500
   0.16571800  0.77223900  0.38400600
   0.87867100  0.78180900  0.40160900
   0.34400100  0.28704100  0.38917400
Direct configuration=     2
   0.83333500  0.67754300  0.78930800
   0.00000000  0.84420700  0.78999400
   0.16666700  0.67754300  0.78930800
   0.66666800  0.84420700  0.78999400
   0.50000100  0.67754300  0.78930800
   0.33333400  0.84420700  0.78999400
   0.68026100  0.83333600  0.08660300
   0.01359400  0.83333600  0.18854400
   0.18025900  0.00000000  0.08660300
   0.51359300  0.00000000  0.18854400
   0.68026100  0.16666700  0.08660300
   0.18025900  0.33333300  0.08660300
   0.51359300  0.33333300  0.18854400
   0.01359400  0.16666700  0.18854400
   0.68026100  0.50000000  0.08660300
   0.18025900  0.66666600  0.08660300
   0.51359300  0.66666600  0.18854400
   0.01359400  0.50000000  0.18854400
   0.01359400  0.16666700  0.32676700
   0.84692800  0.33333300  0.21815900
   0.51359300  0.66666600  0.32676700
   0.34692800  0.50000000  0.21815900
   0.01359400  0.50000000  0.32676700
   0.51359300  0.00000000  0.32676700
   0.51359300  0.33333300  0.32676700
   0.01359400  0.83333600  0.32676700
   0.67423939  0.16571130  0.45435901
   0.50944669  0.33614421  0.52581677
   0.67823267  0.49695107  0.45619352
   0.57128333  0.92713826  0.47278518
   0.51506349  0.66899459  0.52867758
   0.34692800  0.50000000  0.35638700
   0.34692800  0.83333600  0.35638700
   0.34692800  0.16666700  0.35638700
   0.84692800  0.66666700  0.35638700
   0.84692800  0.66666700  0.21815900
   0.34692800  0.83333600  0.21815900
   0.34692800  0.16666700  0.21815900
   0.84692800  0.00000000  0.21815900
   0.84692800  0.33333300  0.35638700
   0.34692800  0.83333600  0.05698300
   0.34692800  0.16666700  0.05698300
   0.34692800  0.50000000  0.05698300
   0.84692800  0.33333300  0.05698300
   0.84692800  0.66666700  0.05698300
   0.84692800  0.00000000  0.05698300
   0.84692800  0.00000000  0.35638700
   0.00000000  0.06715700  0.64645100
   0.50000100  0.23382400  0.64714600
   0.00000000  0.40049000  0.64782600
   0.50000100  0.56715700  0.64851200
   0.00000000  0.73382300  0.64920200
   0.50000100  0.90048800  0.64988900
   0.66666800  0.06715700  0.64645100
   0.16666700  0.23382400  0.64714600
   0.66666800  0.40049000  0.64782600
   0.16666700  0.56715700  0.64851200
   0.66666800  0.73382300  0.64920200
   0.16666700  0.90048800  0.64988900
   0.33333400  0.06715700  0.64645100
   0.83333500  0.23382400  0.64714600
   0.00000000  0.95459700  0.93078000
   0.33333400  0.40049000  0.64782600
   0.83333500  0.56715700  0.64851200
   0.50000100  0.78792600  0.93010000
   0.33333400  0.73382300  0.64920200
   0.00000000  0.62126200  0.92941400
   0.83333500  0.90048800  0.64988900
   0.50000100  0.45459500  0.92872500
   0.00000000  0.28792900  0.92803900
   0.50000100  0.12126200  0.92735000
   0.66666800  0.95459700  0.93078000
   0.16666700  0.78792600  0.93010000
   0.66666800  0.62126200  0.92941400
   0.16666700  0.45459500  0.92872500
   0.66666800  0.28792900  0.92803900
   0.16666700  0.12126200  0.92735000
   0.33333400  0.95459700  0.93078000
   0.83333500  0.78792600  0.93010000
   0.33333400  0.62126200  0.92941400
   0.83333500  0.45459500  0.92872500
   0.33333400  0.28792900  0.92803900
   0.50000100  0.01087700  0.78655700
   0.83333500  0.01087700  0.78655700
   0.16666700  0.01087700  0.78655700
   0.83333500  0.12126200  0.92735000
   0.66666800  0.17754300  0.78724600
   0.00000000  0.17754300  0.78724600
   0.33333400  0.17754300  0.78724600
   0.83333500  0.34421000  0.78793300
   0.16666700  0.34421000  0.78793300
   0.66666800  0.51087600  0.78861900
   0.00000000  0.51087600  0.78861900
   0.50000100  0.34421000  0.78793300
   0.33333400  0.51087600  0.78861900
   0.69385400  0.94897300  0.13757100
   0.84692800  0.76871800  0.13757100
   0.50000000  0.78230900  0.13757100
   0.00000000  0.94897300  0.13757100
   0.19385400  0.11564200  0.13757100
   0.34692800  0.93538200  0.13757100
   0.69385400  0.28230900  0.13757100
   0.84692800  0.10204900  0.13757100
   0.50000000  0.11564300  0.13757100
   0.00000000  0.28230900  0.13757100
   0.19385400  0.44897600  0.13757100
   0.34692800  0.26871500  0.13757100
   0.69385400  0.61564200  0.13757100
   0.84692800  0.43538200  0.13757100
   0.50000000  0.44897600  0.13757100
   0.00000000  0.61564200  0.13757100
   0.19385400  0.78230900  0.13757100
   0.34692800  0.60204800  0.13757100
   0.86052100  0.21769100  0.26913200
   0.16666700  0.21769100  0.26913200
   0.01359400  0.06461800  0.26913200
   0.51359300  0.56461800  0.26913200
   0.36052100  0.71769100  0.26913200
   0.66666700  0.71769100  0.26913200
   0.01359400  0.39795100  0.26913200
   0.16666700  0.55102500  0.26913200
   0.86052100  0.55102500  0.26913200
   0.51359300  0.89795300  0.26913200
   0.36052100  0.05102500  0.26913200
   0.66666700  0.05102500  0.26913200
   0.51359300  0.23128500  0.26913200
   0.36052100  0.38435800  0.26913200
   0.66666700  0.38435800  0.26913200
   0.16666700  0.88435600  0.26913200
   0.86052100  0.88435600  0.26913200
   0.01359400  0.73128200  0.26913200
   0.50734300  0.08999500  0.40984600
   0.66346100  0.26827800  0.39211000
   0.18550600  0.42958900  0.39559700
   0.49899000  0.42768300  0.40817600
   0.69219954  0.61133371  0.49711853
   0.05341600  0.63734400  0.40240300
   0.20802900  0.94701400  0.40909200
   0.06435000  0.92266200  0.41062800
  -0.00296923  0.94769570  0.50011170
   0.18548000  0.08179800  0.38605500
   0.16571800  0.77223900  0.38400600
   0.87867100  0.78180900  0.40160900
   0.34400100  0.28704100  0.38917400
Direct configuration=     3
   0.83333500  0.67754300  0.78930800
   0.00000000  0.84420700  0.78999400
   0.16666700  0.67754300  0.78930800
   0.66666800  0.84420700  0.78999400
   0.50000100  0.67754300  0.78930800
   0.33333400  0.84420700  0.78999400
   0.68026100  0.83333600  0.08660300
   0.01359400  0.83333600  0.18854400
   0.18025900  0.00000000  0.08660300
   0.51359300  0.00000000  0.18854400
   0.68026100  0.16666700  0.08660300
   0.18025900  0.33333300  0.08660300
   0.51359300  0.33333300  0.18854400
   0.01359400  0.16666700  0.18854400
   0.68026100  0.50000000  0.08660300
   0.18025900  0.66666600  0.08660300
   0.51359300  0.66666600  0.18854400
   0.01359400  0.50000000  0.18854400
   0.01359400  0.16666700  0.32676700
   0.84692800  0.33333300  0.21815900
   0.51359300  0.66666600  0.32676700
   0.34692800  0.50000000  0.21815900
   0.01359400  0.50000000  0.32676700
   0.51359300  0.00000000  0.32676700
   0.51359300  0.33333300  0.32676700
   0.01359400  0.83333600  0.32676700
   0.66314315  0.16395020  0.44743771
   0.50180612  0.34132453  0.50029441
   0.67449498  0.49133270  0.45265274
   0.57557935  0.92652509  0.47560123
   0.51777322  0.67328557  0.50842697
   0.34692800  0.50000000  0.35638700
   0.34692800  0.83333600  0.35638700
   0.34692800  0.16666700  0.35638700
   0.84692800  0.66666700  0.35638700
   0.84692800  0.66666700  0.21815900
   0.34692800  0.83333600  0.21815900
   0.34692800  0.16666700  0.21815900
   0.84692800  0.00000000  0.21815900
   0.84692800  0.33333300  0.35638700
   0.34692800  0.83333600  0.05698300
   0.34692800  0.16666700  0.05698300
   0.34692800  0.50000000  0.05698300
   0.84692800  0.33333300  0.05698300
   0.84692800  0.66666700  0.05698300
   0.84692800  0.00000000  0.05698300
   0.84692800  0.00000000  0.35638700
   0.00000000  0.06715700  0.64645100
   0.50000100  0.23382400  0.64714600
   0.00000000  0.40049000  0.64782600
   0.50000100  0.56715700  0.64851200
   0.00000000  0.73382300  0.64920200
   0.50000100  0.90048800  0.64988900
   0.66666800  0.06715700  0.64645100
   0.16666700  0.23382400  0.64714600
   0.66666800  0.40049000  0.64782600
   0.16666700  0.56715700  0.64851200
   0.66666800  0.73382300  0.64920200
   0.16666700  0.90048800  0.64988900
   0.33333400  0.06715700  0.64645100
   0.83333500  0.23382400  0.64714600
   0.00000000  0.95459700  0.93078000
   0.33333400  0.40049000  0.64782600
   0.83333500  0.56715700  0.64851200
   0.50000100  0.78792600  0.93010000
   0.33333400  0.73382300  0.64920200
   0.00000000  0.62126200  0.92941400
   0.83333500  0.90048800  0.64988900
   0.50000100  0.45459500  0.92872500
   0.00000000  0.28792900  0.92803900
   0.50000100  0.12126200  0.92735000
   0.66666800  0.95459700  0.93078000
   0.16666700  0.78792600  0.93010000
   0.66666800  0.62126200  0.92941400
   0.16666700  0.45459500  0.92872500
   0.66666800  0.28792900  0.92803900
   0.16666700  0.12126200  0.92735000
   0.33333400  0.95459700  0.93078000
   0.83333500  0.78792600  0.93010000
   0.33333400  0.62126200  0.92941400
   0.83333500  0.45459500  0.92872500
   0.33333400  0.28792900  0.92803900
   0.50000100  0.01087700  0.78655700
   0.83333500  0.01087700  0.78655700
   0.16666700  0.01087700  0.78655700
   0.83333500  0.12126200  0.92735000
   0.66666800  0.17754300  0.78724600
   0.00000000  0.17754300  0.78724600
   0.33333400  0.17754300  0.78724600
   0.83333500  0.34421000  0.78793300
   0.16666700  0.34421000  0.78793300
   0.66666800  0.51087600  0.78861900
   0.00000000  0.51087600  0.78861900
   0.50000100  0.34421000  0.78793300
   0.33333400  0.51087600  0.78861900
   0.69385400  0.94897300  0.13757100
   0.84692800  0.76871800  0.13757100
   0.50000000  0.78230900  0.13757100
   0.00000000  0.94897300  0.13757100
   0.19385400  0.11564200  0.13757100
   0.34692800  0.93538200  0.13757100
   0.69385400  0.28230900  0.13757100
   0.84692800  0.10204900  0.13757100
   0.50000000  0.11564300  0.13757100
   0.00000000  0.28230900  0.13757100
   0.19385400  0.44897600  0.13757100
   0.34692800  0.26871500  0.13757100
   0.69385400  0.61564200  0.13757100
   0.84692800  0.43538200  0.13757100
   0.50000000  0.44897600  0.13757100
   0.00000000  0.61564200  0.13757100
   0.19385400  0.78230900  0.13757100
   0.34692800  0.60204800  0.13757100
   0.86052100  0.21769100  0.26913200
   0.16666700  0.21769100  0.26913200
   0.01359400  0.06461800  0.26913200
   0.51359300  0.56461800  0.26913200
   0.36052100  0.71769100  0.26913200
   0.66666700  0.71769100  0.26913200
   0.01359400  0.39795100  0.26913200
   0.16666700  0.55102500  0.26913200
   0.86052100  0.55102500  0.26913200
   0.51359300  0.89795300  0.26913200
   0.36052100  0.05102500  0.26913200
   0.66666700  0.05102500  0.26913200
   0.51359300  0.23128500  0.26913200
   0.36052100  0.38435800  0.26913200
   0.66666700  0.38435800  0.26913200
   0.16666700  0.88435600  0.26913200
   0.86052100  0.88435600  0.26913200
   0.01359400  0.73128200  0.26913200
   0.50734300  0.08999500  0.40984600
   0.66346100  0.26827800  0.39211000
   0.18550600  0.42958900  0.39559700
   0.49899000  0.42768300  0.40817600
   0.68915080  0.60339466  0.49385602
   0.05341600  0.63734400  0.40240300
   0.20802900  0.94701400  0.40909200
   0.06435000  0.92266200  0.41062800
  -0.00844075  0.94534196  0.50236483
   0.18548000  0.08179800  0.38605500
   0.16571800  0.77223900  0.38400600
   0.87867100  0.78180900  0.40160900
   0.34400100  0.28704100  0.38917400
Direct configuration=     4
   0.83333500  0.67754300  0.78930800
   0.00000000  0.84420700  0.78999400
   0.16666700  0.67754300  0.78930800
   0.66666800  0.84420700  0.78999400
   0.50000100  0.67754300  0.78930800
   0.33333400  0.84420700  0.78999400
   0.68026100  0.83333600  0.08660300
   0.01359400  0.83333600  0.18854400
   0.18025900  0.00000000  0.08660300
   0.51359300  0.00000000  0.18854400
   0.68026100  0.16666700  0.08660300
   0.18025900  0.33333300  0.08660300
   0.51359300  0.33333300  0.18854400
   0.01359400  0.16666700  0.18854400
   0.68026100  0.50000000  0.08660300
   0.18025900  0.66666600  0.08660300
   0.51359300  0.66666600  0.18854400
   0.01359400  0.50000000  0.18854400
   0.01359400  0.16666700  0.32676700
   0.84692800  0.33333300  0.21815900
   0.51359300  0.66666600  0.32676700
   0.34692800  0.50000000  0.21815900
   0.01359400  0.50000000  0.32676700
   0.51359300  0.00000000  0.32676700
   0.51359300  0.33333300  0.32676700
   0.01359400  0.83333600  0.32676700
   0.64095067  0.16042799  0.43359511
   0.48652500  0.35168516  0.44924970
   0.66701960  0.48009594  0.44557117
   0.58417140  0.92529877  0.48123331
   0.52319267  0.68186752  0.46792574
   0.34692800  0.50000000  0.35638700
   0.34692800  0.83333600  0.35638700
   0.34692800  0.16666700  0.35638700
   0.84692800  0.66666700  0.35638700
   0.84692800  0.66666700  0.21815900
   0.34692800  0.83333600  0.21815900
   0.34692800  0.16666700  0.21815900
   0.84692800  0.00000000  0.21815900
   0.84692800  0.33333300  0.35638700
   0.34692800  0.83333600  0.05698300
   0.34692800  0.16666700  0.05698300
   0.34692800  0.50000000  0.05698300
   0.84692800  0.33333300  0.05698300
   0.84692800  0.66666700  0.05698300
   0.84692800  0.00000000  0.05698300
   0.84692800  0.00000000  0.35638700
   0.00000000  0.06715700  0.64645100
   0.50000100  0.23382400  0.64714600
   0.00000000  0.40049000  0.64782600
   0.50000100  0.56715700  0.64851200
   0.00000000  0.73382300  0.64920200
   0.50000100  0.90048800  0.64988900
   0.66666800  0.06715700  0.64645100
   0.16666700  0.23382400  0.64714600
   0.66666800  0.40049000  0.64782600
   0.16666700  0.56715700  0.64851200
   0.66666800  0.73382300  0.64920200
   0.16666700  0.90048800  0.64988900
   0.33333400  0.06715700  0.64645100
   0.83333500  0.23382400  0.64714600
   0.00000000  0.95459700  0.93078000
   0.33333400  0.40049000  0.64782600
   0.83333500  0.56715700  0.64851200
   0.50000100  0.78792600  0.93010000
   0.33333400  0.73382300  0.64920200
   0.00000000  0.62126200  0.92941400
   0.83333500  0.90048800  0.64988900
   0.50000100  0.45459500  0.92872500
   0.00000000  0.28792900  0.92803900
   0.50000100  0.12126200  0.92735000
   0.66666800  0.95459700  0.93078000
   0.16666700  0.78792600  0.93010000
   0.66666800  0.62126200  0.92941400
   0.16666700  0.45459500  0.92872500
   0.66666800  0.28792900  0.92803900
   0.16666700  0.12126200  0.92735000
   0.33333400  0.95459700  0.93078000
   0.83333500  0.78792600  0.93010000
   0.33333400  0.62126200  0.92941400
   0.83333500  0.45459500  0.92872500
   0.33333400  0.28792900  0.92803900
   0.50000100  0.01087700  0.78655700
   0.83333500  0.01087700  0.78655700
   0.16666700  0.01087700  0.78655700
   0.83333500  0.12126200  0.92735000
   0.66666800  0.17754300  0.78724600
   0.00000000  0.17754300  0.78724600
   0.33333400  0.17754300  0.78724600
   0.83333500  0.34421000  0.78793300
   0.16666700  0.34421000  0.78793300
   0.66666800  0.51087600  0.78861900
   0.00000000  0.51087600  0.78861900
   0.50000100  0.34421000  0.78793300
   0.33333400  0.51087600  0.78861900
   0.69385400  0.94897300  0.13757100
   0.84692800  0.76871800  0.13757100
   0.50000000  0.78230900  0.13757100
   0.00000000  0.94897300  0.13757100
   0.19385400  0.11564200  0.13757100
   0.34692800  0.93538200  0.13757100
   0.69385400  0.28230900  0.13757100
   0.84692800  0.10204900  0.13757100
   0.50000000  0.11564300  0.13757100
   0.00000000  0.28230900  0.13757100
   0.19385400  0.44897600  0.13757100
   0.34692800  0.26871500  0.13757100
   0.69385400  0.61564200  0.13757100
   0.84692800  0.43538200  0.13757100
   0.50000000  0.44897600  0.13757100
   0.00000000  0.61564200  0.13757100
   0.19385400  0.78230900  0.13757100
   0.34692800  0.60204800  0.13757100
   0.86052100  0.21769100  0.26913200
   0.16666700  0.21769100  0.26913200
   0.01359400  0.06461800  0.26913200
   0.51359300  0.56461800  0.26913200
   0.36052100  0.71769100  0.26913200
   0.66666700  0.71769100  0.26913200
   0.01359400  0.39795100  0.26913200
   0.16666700  0.55102500  0.26913200
   0.86052100  0.55102500  0.26913200
   0.51359300  0.89795300  0.26913200
   0.36052100  0.05102500  0.26913200
   0.66666700  0.05102500  0.26913200
   0.51359300  0.23128500  0.26913200
   0.36052100  0.38435800  0.26913200
   0.66666700  0.38435800  0.26913200
   0.16666700  0.88435600  0.26913200
   0.86052100  0.88435600  0.26913200
   0.01359400  0.73128200  0.26913200
   0.50734300  0.08999500  0.40984600
   0.66346100  0.26827800  0.39211000
   0.18550600  0.42958900  0.39559700
   0.49899000  0.42768300  0.40817600
   0.68305333  0.58751656  0.48733099
   0.05341600  0.63734400  0.40240300
   0.20802900  0.94701400  0.40909200
   0.06435000  0.92266200  0.41062800
  -0.01938379  0.94063450  0.50687107
   0.18548000  0.08179800  0.38605500
   0.16571800  0.77223900  0.38400600
   0.87867100  0.78180900  0.40160900
   0.34400100  0.28704100  0.38917400
Direct configuration=     5
   0.83333500  0.67754300  0.78930800
   0.00000000  0.84420700  0.78999400
   0.16666700  0.67754300  0.78930800
   0.66666800  0.84420700  0.78999400
   0.50000100  0.67754300  0.78930800
   0.33333400  0.84420700  0.78999400
   0.68026100  0.83333600  0.08660300
   0.01359400  0.83333600  0.18854400
   0.18025900  0.00000000  0.08660300
   0.51359300  0.00000000  0.18854400
   0.68026100  0.16666700  0.08660300
   0.18025900  0.33333300  0.08660300
   0.51359300  0.33333300  0.18854400
   0.01359400  0.16666700  0.18854400
   0.68026100  0.50000000  0.08660300
   0.18025900  0.66666600  0.08660300
   0.51359300  0.66666600  0.18854400
   0.01359400  0.50000000  0.18854400
   0.01359400  0.16666700  0.32676700
   0.84692800  0.33333300  0.21815900
   0.51359300  0.66666600  0.32676700
   0.34692800  0.50000000  0.21815900
   0.01359400  0.50000000  0.32676700
   0.51359300  0.00000000  0.32676700
   0.51359300  0.33333300  0.32676700
   0.01359400  0.83333600  0.32676700
   0.66157626  0.16370151  0.44646036
   0.50072721  0.34205603  0.49669043
   0.67396718  0.49053933  0.45215275
   0.57618599  0.92643851  0.47599888
   0.51815585  0.67389149  0.50556740
   0.34692800  0.50000000  0.35638700
   0.34692800  0.83333600  0.35638700
   0.34692800  0.16666700  0.35638700
   0.84692800  0.66666700  0.35638700
   0.84692800  0.66666700  0.21815900
   0.34692800  0.83333600  0.21815900
   0.34692800  0.16666700  0.21815900
   0.84692800  0.00000000  0.21815900
   0.84692800  0.33333300  0.35638700
   0.34692800  0.83333600  0.05698300
   0.34692800  0.16666700  0.05698300
   0.34692800  0.50000000  0.05698300
   0.84692800  0.33333300  0.05698300
   0.84692800  0.66666700  0.05698300
   0.84692800  0.00000000  0.05698300
   0.84692800  0.00000000  0.35638700
   0.00000000  0.06715700  0.64645100
   0.50000100  0.23382400  0.64714600
   0.00000000  0.40049000  0.64782600
   0.50000100  0.56715700  0.64851200
   0.00000000  0.73382300  0.64920200
   0.50000100  0.90048800  0.64988900
   0.66666800  0.06715700  0.64645100
   0.16666700  0.23382400  0.64714600
   0.66666800  0.40049000  0.64782600
   0.16666700  0.56715700  0.64851200
   0.66666800  0.73382300  0.64920200
   0.16666700  0.90048800  0.64988900
   0.33333400  0.06715700  0.64645100
   0.83333500  0.23382400  0.64714600
   0.00000000  0.95459700  0.93078000
   0.33333400  0.40049000  0.64782600
   0.83333500  0.56715700  0.64851200
   0.50000100  0.78792600  0.93010000
   0.33333400  0.73382300  0.64920200
   0.00000000  0.62126200  0.92941400
   0.83333500  0.90048800  0.64988900
   0.50000100  0.45459500  0.92872500
   0.00000000  0.28792900  0.92803900
   0.50000100  0.12126200  0.92735000
   0.66666800  0.95459700  0.93078000
   0.16666700  0.78792600  0.93010000
   0.66666800  0.62126200  0.92941400
   0.16666700  0.45459500  0.92872500
   0.66666800  0.28792900  0.92803900
   0.16666700  0.12126200  0.92735000
   0.33333400  0.95459700  0.93078000
   0.83333500  0.78792600  0.93010000
   0.33333400  0.62126200  0.92941400
   0.83333500  0.45459500  0.92872500
   0.33333400  0.28792900  0.92803900
   0.50000100  0.01087700  0.78655700
   0.83333500  0.01087700  0.78655700
   0.16666700  0.01087700  0.78655700
   0.83333500  0.12126200  0.92735000
   0.66666800  0.17754300  0.78724600
   0.00000000  0.17754300  0.78724600
   0.33333400  0.17754300  0.78724600
   0.83333500  0.34421000  0.78793300
   0.16666700  0.34421000  0.78793300
   0.66666800  0.51087600  0.78861900
   0.00000000  0.51087600  0.78861900
   0.50000100  0.34421000  0.78793300
   0.33333400  0.51087600  0.78861900
   0.69385400  0.94897300  0.13757100
   0.84692800  0.76871800  0.13757100
   0.50000000  0.78230900  0.13757100
   0.00000000  0.94897300  0.13757100
   0.19385400  0.11564200  0.13757100
   0.34692800  0.93538200  0.13757100
   0.69385400  0.28230900  0.13757100
   0.84692800  0.10204900  0.13757100
   0.50000000  0.11564300  0.13757100
   0.00000000  0.28230900  0.13757100
   0.19385400  0.44897600  0.13757100
   0.34692800  0.26871500  0.13757100
   0.69385400  0.61564200  0.13757100
   0.84692800  0.43538200  0.13757100
   0.50000000  0.44897600  0.13757100
   0.00000000  0.61564200  0.13757100
   0.19385400  0.78230900  0.13757100
   0.34692800  0.60204800  0.13757100
   0.86052100  0.21769100  0.26913200
   0.16666700  0.21769100  0.26913200
   0.01359400  0.06461800  0.26913200
   0.51359300  0.56461800  0.26913200
   0.36052100  0.71769100  0.26913200
   0.66666700  0.71769100  0.26913200
   0.01359400  0.39795100  0.26913200
   0.16666700  0.55102500  0.26913200
   0.86052100  0.55102500  0.26913200
   0.51359300  0.89795300  0.26913200
   0.36052100  0.05102500  0.26913200
   0.66666700  0.05102500  0.26913200
   0.51359300  0.23128500  0.26913200
   0.36052100  0.38435800  0.26913200
   0.66666700  0.38435800  0.26913200
   0.16666700  0.88435600  0.26913200
   0.86052100  0.88435600  0.26913200
   0.01359400  0.73128200  0.26913200
   0.50734300  0.08999500  0.40984600
   0.66346100  0.26827800  0.39211000
   0.18550600  0.42958900  0.39559700
   0.49899000  0.42768300  0.40817600
   0.68872029  0.60227360  0.49339532
   0.05341600  0.63734400  0.40240300
   0.20802900  0.94701400  0.40909200
   0.06435000  0.92266200  0.41062800
  -0.00921338  0.94500960  0.50268299
   0.18548000  0.08179800  0.38605500
   0.16571800  0.77223900  0.38400600
   0.87867100  0.78180900  0.40160900
   0.34400100  0.28704100  0.38917400
