ITEM: TIMESTEP
614
ITEM: NUMBER OF ATOMS
18
ITEM: BOX BOUNDS ff ff ff
0.0000000000000000e+00 1.8000000000000000e+01
0.0000000000000000e+00 1.8000000000000000e+01
0.0000000000000000e+00 1.8000000000000000e+01
ITEM: ATOMS id type x y z c_peatom 
12 2 6.63919 9.71051 5.62688 -3.80168 
5 1 8.26769 7.84517 7.79828 -2.70008 
2 1 6.05067 9.23174 7.04354 -4.41143 
14 2 7.98351 9.44884 8.54593 -5.55525 
8 2 8.78 11.9541 7.88657 -3.70772 
4 1 9.33626 10.3271 7.41691 -4.71151 
15 2 12.3521 10.1518 8.71545 -0.800669 
9 2 6.79278 7.27655 10.6878 -3.92585 
1 1 5.99782 6.84814 9.38272 -4.06893 
3 1 9.55789 8.90318 9.94472 -4.61752 
6 1 7.32844 11.4046 9.12335 -5.71039 
7 1 8.26661 11.0425 11.6547 -5.51355 
13 2 6.80685 10.4677 10.7308 -3.48879 
11 2 9.63039 9.74139 11.59 -3.64801 
16 2 10.7243 10.0364 9.05862 -3.51627 
17 2 8.66488 12.0549 10.1853 -3.75801 
10 2 11.0628 7.63453 12.5961 -2.58128 
18 2 10.1733 6.83213 12.4406 -2.58128 
