ITEM: TIMESTEP
165
ITEM: NUMBER OF ATOMS
18
ITEM: BOX BOUNDS ff ff ff
0.0000000000000000e+00 1.8000000000000000e+01
0.0000000000000000e+00 1.8000000000000000e+01
0.0000000000000000e+00 1.8000000000000000e+01
ITEM: ATOMS id type x y z c_peatom
8 2 9.34334 9.24782 4.85619 -2.85834
1 1 7.07504 8.43464 7.10889 -6.45744
9 2 7.55021 8.61347 8.94165 -3.69947
10 2 10.9549 7.04414 8.19795 -2.74535
11 2 9.14501 7.86488 7.04215 -3.46631
12 2 5.52015 9.12485 7.31597 -2.78812
3 1 8.08602 10.4138 8.93621 -5.61492
13 2 7.90572 10.1402 6.86441 -3.69122
4 1 9.70665 9.57363 6.48945 -6.27458
14 2 9.8537 9.7603 8.81778 -3.78479
5 1 8.64595 7.53919 11.8511 -2.88343
2 1 9.61926 7.78594 9.00747 -6.95115
6 1 11.302 7.30246 11.4648 -3.88587
15 2 11.2634 8.43817 10.0571 -4.03958
16 2 8.36663 10.6552 10.817 -3.18961
7 1 10.1014 9.89203 10.9419 -7.18582
17 2 11.1765 11.1934 11.2707 -2.73954
18 2 10.0662 8.36318 12.3663 -5.33249
