ITEM: TIMESTEP
709
ITEM: NUMBER OF ATOMS
18
ITEM: BOX BOUNDS ff ff ff
0.0000000000000000e+00 1.8000000000000000e+01
0.0000000000000000e+00 1.8000000000000000e+01
0.0000000000000000e+00 1.8000000000000000e+01
ITEM: ATOMS id type x y z c_peatom 
9 2 8.71587 5.95311 8.85024 -3.48763 
8 2 7.19488 7.6384 7.50572 -3.73985 
2 1 8.98116 7.38066 7.7314 -4.96972 
1 1 7.07391 9.48273 7.26664 -5.44783 
10 2 8.22411 10.5306 8.40412 -3.69501 
16 2 6.008 9.63379 8.71109 -3.32582 
3 1 10.0511 10.0359 7.92819 -6.08533 
17 2 10.3439 11.6309 7.40865 -2.9147 
6 1 8.39966 6.88372 10.4885 -6.62929 
11 2 6.77818 7.8409 10.1181 -3.06746 
12 2 8.97993 8.5845 9.36273 -4.09213 
15 2 8.36515 8.54648 11.6229 -3.40426 
14 2 10.236 7.27904 10.7774 -3.15754 
5 1 7.45932 9.64708 10.1023 -7.20055 
13 2 8.90892 10.6685 10.9361 -3.04105 
4 1 10.1257 9.18829 11.0224 -6.30487 
18 2 11.0787 10.3329 9.58138 -4.96433 
7 1 12.374 9.28165 9.26374 -2.85782 
