ITEM: TIMESTEP
220
ITEM: NUMBER OF ATOMS
18
ITEM: BOX BOUNDS ff ff ff
0.0000000000000000e+00 1.8000000000000000e+01
0.0000000000000000e+00 1.8000000000000000e+01
0.0000000000000000e+00 1.8000000000000000e+01
ITEM: ATOMS id type x y z c_peatom
1 1 7.76865 7.66593 7.08522 -5.04507
10 2 8.63471 6.75677 8.46183 -3.91007
6 1 10.3279 6.64023 7.55403 -4.61278
8 2 9.53353 7.6857 6.21819 -4.41287
9 2 11.5088 8.18893 7.88466 -4.13202
14 2 7.56738 9.09519 8.18508 -3.25561
11 2 8.23092 11.6368 7.07573 -3.55359
2 1 10.4954 9.26799 6.74578 -4.58262
13 2 9.72068 9.86783 8.41653 -4.22504
3 1 9.54167 11.8279 8.01059 -4.72167
4 1 8.47997 8.44357 9.85607 -10.0369
15 2 8.48074 8.35916 11.9443 -3.21342
18 2 7.3476 7.19544 10.3178 -2.47851
12 2 10.5121 7.92021 10.5514 -3.74404
16 2 7.44314 9.73093 10.4034 -2.48814
7 1 11.2225 9.37337 9.55091 -5.20648
17 2 9.74521 10.073 10.767 -3.50724
5 1 10.1483 8.89729 12.1446 -5.17883
