ITEM: TIMESTEP
78
ITEM: NUMBER OF ATOMS
387
ITEM: BOX BOUNDS pp pp pp
0.0000000000000000e+00 8.4283000000000001e+00
0.0000000000000000e+00 1.4598200000000000e+01
0.0000000000000000e+00 4.9476269000000002e+01
ITEM: ATOMS id type x y z c_peatom
53 1 2.92401 12.1652 3.61953 -2.2941
54 1 7.13816 4.86606 3.61953 -2.29409
55 1 5.73344 7.2991 5.31004 -6.5982
56 1 7.13816 9.73214 3.61953 -2.29409
57 1 5.73344 12.1652 5.31004 -6.5982
58 1 7.13816 0 3.61953 -2.29408
59 1 5.73344 2.43304 5.31004 -6.5982
60 1 2.92401 7.2991 3.61953 -2.29408
61 1 1.51929 9.73212 5.31004 -6.59819
62 1 2.92401 2.43304 3.61953 -2.29408
63 1 1.51929 4.86606 5.31004 -6.5982
64 1 1.51929 0 5.31004 -6.59819
65 1 0.114574 7.2991 5.80124 -6.54405
66 1 4.32872 9.73212 5.80124 -6.54404
67 1 2.92401 7.2991 7.4917 -6.40207
68 1 0.114574 12.1652 5.80124 -6.54405
69 1 7.13816 9.73214 7.4917 -6.40206
70 1 4.32872 0 5.80124 -6.54405
71 1 2.92401 12.1652 7.4917 -6.40208
72 1 0.114574 2.43304 5.80124 -6.54404
73 1 7.13816 0 7.4917 -6.40207
74 1 4.32872 4.86606 5.80124 -6.54403
75 1 2.92401 2.43304 7.4917 -6.40207
76 1 7.13816 4.86606 7.4917 -6.40206
77 1 5.73344 12.1652 7.98285 -6.40205
80 1 5.73344 7.2991 7.98285 -6.40204
81 1 1.51929 9.73212 7.98285 -6.40204
84 1 5.73344 2.43304 7.98285 -6.40204
85 1 1.51929 4.86606 7.98285 -6.40204
87 1 1.51929 0 7.98285 -6.40204
89 1 4.32872 9.73212 3.12833 -3.27315
90 1 4.32872 4.86606 3.12833 -3.27316
91 1 0.114574 12.1652 3.12833 -3.27315
92 1 0.114574 2.43304 3.12833 -3.27315
93 1 0.114574 7.2991 3.12833 -3.27315
94 1 4.32872 0 3.12833 -3.27314
322 2 3.03858 10.477 4.46474 -3.32409
323 2 1.40472 12.91 4.46474 -3.32409
324 2 4.32872 13.1085 4.46474 -3.32408
325 2 7.25273 3.1779 4.46474 -3.32408
326 2 0.114574 5.80937 4.46474 -3.32409
327 2 5.61887 5.61093 4.46474 -3.32408
328 2 0.114574 10.6754 4.46474 -3.32409
329 2 5.61887 10.477 4.46474 -3.32408
330 2 7.25273 8.04396 4.46474 -3.32409
331 2 0.114574 0.943306 4.46474 -3.32409
332 2 5.61887 0.744873 4.46474 -3.32408
333 2 7.25273 12.91 4.46474 -3.32408
334 2 1.40472 8.04396 4.46474 -3.32407
335 2 4.32872 8.24241 4.46474 -3.32408
336 2 3.03858 5.61092 4.46474 -3.32409
337 2 1.40472 3.1779 4.46474 -3.32408
338 2 4.32872 3.37635 4.46474 -3.32409
339 2 3.03858 0.744859 4.46474 -3.32408
340 2 0.22914 8.98727 6.64644 -4.12705
341 2 7.02359 6.55424 6.64644 -4.12705
342 2 1.51929 6.35579 6.64644 -4.12705
343 2 5.73344 8.78883 6.64644 -4.12705
344 2 2.80944 8.98727 6.64644 -4.12704
345 2 4.44329 11.4203 6.64644 -4.12706
346 2 0.22914 13.8533 6.64644 -4.12706
347 2 7.02359 11.4203 6.64644 -4.12704
348 2 1.51929 11.2219 6.64644 -4.12706
349 2 4.44329 1.68816 6.64644 -4.12706
350 2 5.73344 13.6549 6.64644 -4.12705
351 2 2.80944 13.8533 6.64644 -4.12705
352 2 0.22914 4.1212 6.64644 -4.12705
353 2 1.51929 1.48973 6.64644 -4.12705
354 2 7.02359 1.68816 6.64644 -4.12705
355 2 2.80944 4.1212 6.64644 -4.12704
356 2 5.73344 3.92275 6.64644 -4.12704
357 2 4.44329 6.55424 6.64644 -4.12706
17 1 5.73344 2.43304 14.5279 -6.39934
18 1 4.32872 4.86606 16.2184 -6.36281
19 1 5.73344 12.1652 14.5279 -6.40126
20 1 5.73344 7.2991 14.5279 -6.40126
21 1 4.32872 9.73212 16.2184 -6.37055
22 1 1.51928 4.86606 14.5279 -6.40136
23 1 0.114574 2.43304 16.2184 -6.35985
24 1 1.51928 0 14.5279 -6.40105
25 1 0.114574 12.1652 16.2184 -6.28031
26 1 1.51928 9.73212 14.5279 -6.40124
27 1 0.114574 7.2991 16.2184 -6.36738
28 1 4.32872 0 16.2184 -6.37815
29 1 2.92401 12.1652 10.1646 -6.40196
30 1 2.92401 7.2991 10.1646 -6.40195
31 1 1.51929 9.73212 11.855 -6.4021
32 1 7.13816 4.86606 10.1646 -6.40194
33 1 5.73344 2.43304 11.855 -6.40212
34 1 7.13816 0 10.1646 -6.40195
35 1 5.73344 12.1652 11.855 -6.40212
36 1 7.13816 9.73214 10.1646 -6.40194
37 1 5.73344 7.2991 11.855 -6.40212
38 1 2.92401 2.43304 10.1646 -6.40195
39 1 1.51929 0 11.855 -6.40212
40 1 1.51929 4.86606 11.855 -6.4021
41 1 4.32872 0 12.3462 -6.40196
42 1 2.92401 2.43304 14.0367 -6.37962
43 1 7.13816 0 14.0367 -6.38416
44 1 0.114574 7.2991 12.3462 -6.40197
45 1 0.114574 2.43304 12.3462 -6.40196
46 1 7.13816 4.86606 14.0367 -6.38414
47 1 4.32872 4.86606 12.3462 -6.40196
48 1 2.92401 7.2991 14.0367 -6.38417
49 1 0.114574 12.1652 12.3462 -6.40197
50 1 4.32872 9.73212 12.3462 -6.40196
51 1 7.13816 9.73214 14.0367 -6.38415
52 1 2.92401 12.1652 14.0367 -6.38418
78 1 0.114574 12.1652 9.67335 -6.40208
79 1 4.32872 9.73212 9.67335 -6.40207
82 1 0.114574 7.2991 9.67335 -6.40207
83 1 4.32872 4.86606 9.67335 -6.40207
86 1 0.114574 2.43304 9.67335 -6.40207
88 1 4.32872 0 9.67335 -6.40207
268 2 5.84801 4.1212 15.3731 -4.12743
269 2 7.13816 1.48973 15.3731 -4.12743
270 2 4.21415 1.68818 15.3731 -4.12725
271 2 5.84801 13.8533 15.3731 -4.12743
272 2 7.13816 11.2219 15.3731 -4.12743
273 2 4.21415 11.4203 15.3731 -4.12745
274 2 5.84801 8.98727 15.3731 -4.12743
275 2 7.13816 6.35579 15.3731 -4.12744
276 2 4.21415 6.55424 15.3731 -4.12745
277 2 0 4.1212 15.3731 -4.12742
278 2 2.92401 3.92275 15.3731 -4.12724
279 2 1.63386 6.55424 15.3731 -4.12744
280 2 1.63386 1.68816 15.3731 -4.12723
281 2 0 13.8533 15.3731 -4.12744
282 2 2.92401 13.6549 15.3731 -4.12745
283 2 0 8.98727 15.3731 -4.12744
284 2 2.92401 8.78882 15.3731 -4.12744
285 2 1.63386 11.4203 15.3731 -4.12744
286 2 3.03858 13.8533 11.0098 -4.12708
287 2 1.40472 11.4203 11.0098 -4.12708
288 2 4.32872 11.2219 11.0098 -4.12709
289 2 3.03858 8.98727 11.0098 -4.12707
290 2 1.40472 6.55424 11.0098 -4.12709
291 2 4.32872 6.35579 11.0098 -4.12709
292 2 5.61887 4.1212 11.0098 -4.12707
293 2 0.114574 3.92275 11.0098 -4.12708
294 2 7.25273 6.55424 11.0098 -4.12709
295 2 0.114574 13.6549 11.0098 -4.12709
296 2 5.61887 13.8533 11.0098 -4.12707
297 2 7.25273 1.68818 11.0098 -4.12709
298 2 7.25273 11.4203 11.0098 -4.12707
299 2 5.61887 8.98727 11.0098 -4.12708
300 2 0.114574 8.78882 11.0098 -4.12709
301 2 3.03858 4.1212 11.0098 -4.12707
302 2 4.32872 1.48973 11.0098 -4.12708
303 2 1.40472 1.68816 11.0098 -4.12708
304 2 5.73344 0.943306 13.1914 -4.12709
305 2 2.80944 0.744873 13.1914 -4.12708
306 2 4.44329 12.91 13.1914 -4.1271
307 2 0.22914 5.61093 13.1914 -4.12709
308 2 7.02359 8.04396 13.1914 -4.12709
309 2 1.51929 8.24241 13.1914 -4.12708
310 2 0.22914 0.744873 13.1914 -4.12709
311 2 7.02359 3.1779 13.1914 -4.12708
312 2 1.51929 3.37635 13.1914 -4.12708
313 2 4.44329 3.1779 13.1914 -4.12709
314 2 5.73344 5.80937 13.1914 -4.1271
315 2 2.80944 5.61093 13.1914 -4.12709
316 2 0.22914 10.477 13.1914 -4.12709
317 2 7.02359 12.91 13.1914 -4.12709
318 2 1.51929 13.1085 13.1914 -4.12709
319 2 4.44329 8.04396 13.1914 -4.12709
320 2 5.73344 10.6754 13.1914 -4.12709
321 2 2.80944 10.477 13.1914 -4.12709
358 2 5.84801 10.477 8.8281 -4.12712
359 2 7.13816 13.1085 8.8281 -4.12713
360 2 0 10.477 8.8281 -4.12713
361 2 1.63386 12.91 8.8281 -4.12713
362 2 4.21415 8.04396 8.8281 -4.12713
363 2 5.84801 5.61093 8.8281 -4.12712
364 2 7.13816 8.24241 8.8281 -4.12713
365 2 1.63386 8.04396 8.8281 -4.12711
366 2 2.92401 10.6754 8.8281 -4.12713
367 2 4.21415 3.1779 8.8281 -4.12712
368 2 5.84801 0.744873 8.8281 -4.12712
369 2 7.13816 3.37635 8.8281 -4.12712
370 2 1.63386 3.1779 8.8281 -4.12711
371 2 2.92401 5.80937 8.8281 -4.12713
372 2 2.92401 0.943306 8.8281 -4.12713
373 2 4.21415 12.91 8.8281 -4.12713
374 2 0 0.744859 8.8281 -4.12713
375 2 0 5.61092 8.8281 -4.12714
2 1 4.21416 13.1455 23.869 -2.96372
4 1 7.0236 13.1455 23.869 -2.95976
5 1 4.32872 4.86606 18.5106 -4.34914
6 1 2.92401 7.2991 16.7095 -6.57131
7 1 4.32872 9.73212 18.5106 -4.47096
8 1 2.92401 12.1652 16.7095 -6.44559
9 1 0.114574 12.1652 18.5106 -8.04015
10 1 0.114574 7.2991 18.5106 -4.53592
11 1 7.13816 9.73214 16.7095 -6.46704
12 1 0.114574 2.43304 18.5106 -2.8265
13 1 7.13816 4.86606 16.7095 -6.58575
14 1 4.32872 0 18.5106 -4.12364
15 1 2.92401 2.43304 16.7095 -6.49471
16 1 7.13816 0 16.7095 -6.43988
95 1 6.55661 9.44182 21.6476 -2.3337
96 1 4.39382 8.15847 21.0516 -2.40209
97 1 1.82283 7.15749 21.5561 -2.66767
98 1 2.85217 3.39726 21.46 -2.45601
99 1 0.679764 2.1641 21.406 -3.58106
100 1 1.03318 5.00353 20.2497 -2.43402
101 1 3.92161 5.53845 21.0679 -2.59311
102 1 6.98721 6.65652 21.3692 -2.64778
103 1 1.37196 0.855428 19.3021 -5.84839
104 1 7.13816 9.73214 19.0018 -5.17868
105 1 2.92401 12.1652 19.0018 -5.72635
106 1 7.13816 0 19.0018 -5.35173
107 1 2.92401 2.43304 19.0018 -3.86756
108 1 2.92401 7.2991 19.0018 -3.15835
109 1 7.13816 4.86606 19.0018 -2.80948
110 1 5.61888 0.980371 23.812 -2.94564
111 1 1.40472 3.41341 23.8235 -3.23172
112 1 4.21416 3.41341 23.8235 -3.18252
113 1 2.80944 5.84643 23.8348 -3.34742
114 1 5.61888 5.84643 23.8348 -3.2276
115 1 0 5.84643 23.8348 -3.26235
116 1 4.21416 8.27947 23.8462 -3.32541
117 1 1.40472 8.27947 23.8462 -3.16127
118 1 5.61888 10.7125 23.8576 -3.19344
119 1 1.40472 13.1455 23.869 -2.96069
121 1 2.80944 0.980371 23.812 -3.09355
122 1 7.0236 3.41341 23.8235 -2.97496
123 1 7.0236 8.27947 23.8462 -3.36166
124 1 0 0.980371 23.812 -3.10076
125 1 0 10.7125 23.8576 -3.11082
129 1 2.80944 10.7125 23.8576 -2.93503
250 2 4.32872 3.37635 17.5548 -3.57509
251 2 3.03858 5.61093 17.5548 -3.45954
252 2 5.61887 5.61093 17.5548 -3.39148
253 2 4.32872 8.24241 17.5548 -3.38765
254 2 3.03858 10.477 17.5548 -3.69789
255 2 5.61887 10.477 17.5548 -3.63035
256 2 1.40472 12.91 17.5548 -4.09369
257 2 7.25273 12.91 17.5548 -4.20806
258 2 0.114574 10.6754 17.5548 -3.98049
259 2 0.114574 5.80937 17.5548 -3.379
260 2 1.40472 8.04397 17.5548 -3.48773
261 2 7.25273 8.04397 17.5548 -3.66386
262 2 1.40472 3.1779 17.5548 -3.4662
263 2 7.25273 3.1779 17.5548 -3.24483
264 2 0.114574 0.943306 17.5548 -4.17416
265 2 4.32872 13.1085 17.5548 -3.96646
266 2 3.03858 0.744873 17.5548 -3.88893
267 2 5.61887 0.744873 17.5548 -3.11252
376 2 7.51736 13.1841 20.1845 -1.80927
377 2 2.59906 13.9398 19.285 -2.98561
378 2 1.81151 -0.280328 21.1742 -2.37424
379 2 4.53895 11.4118 19.3756 -1.81081
380 2 7.29003 11.3687 19.5624 -2.24286
381 2 8.26582 0.656865 20.4908 -3.03249
382 2 7.33637 2.85873 21.2079 -0.923682
383 2 0.393419 9.08516 19.3895 -2.04848
384 2 2.78267 4.26708 19.5706 -2.55051
385 2 2.50743 0.749505 21.0918 -2.65341
386 2 0.553656 13.8436 19.1245 -3.93424
387 2 1.34058 11.5504 19.7845 -2.2697
1 1 4.21416 0.158785 26.1354 -3.41567
3 1 7.0236 0.158785 26.1354 -3.41574
120 1 1.40472 0.158785 26.1354 -3.41286
126 1 5.61888 2.59181 26.1468 -3.41246
127 1 0 2.59181 26.1468 -3.40951
128 1 2.80944 2.59181 26.1468 -3.40821
130 1 7.0236 5.02485 26.1582 -3.39931
131 1 1.40472 5.02485 26.1582 -3.37409
132 1 5.61888 7.45787 26.1696 -3.38655
133 1 0 7.45787 26.1696 -3.39126
134 1 4.21416 5.02485 26.1582 -3.38894
135 1 2.80944 7.45787 26.1696 -3.37627
136 1 7.0236 9.89091 26.181 -3.40234
137 1 1.40472 9.89091 26.181 -3.41205
138 1 5.61888 12.3239 26.1924 -3.42366
139 1 0 12.3239 26.1924 -3.43171
140 1 4.21416 9.89091 26.181 -3.4094
141 1 2.80944 12.3239 26.1924 -3.4406
142 1 5.61888 5.81468 30.8164 -3.35104
143 1 0 5.81468 30.8164 -3.35104
144 1 7.0236 8.24771 30.8277 -3.35103
145 1 1.40472 8.24771 30.8277 -3.35103
146 1 4.21416 8.24771 30.8277 -3.35103
147 1 2.80944 5.81468 30.8164 -3.35104
148 1 7.0236 1.77021 28.4702 -3.35207
149 1 1.40472 1.77021 28.4702 -3.35207
150 1 4.21416 1.77021 28.4702 -3.35207
151 1 7.0236 6.63627 28.493 -3.35105
152 1 1.40472 6.63627 28.493 -3.35104
153 1 5.61888 4.20324 28.4816 -3.35108
154 1 0 4.20324 28.4816 -3.35108
155 1 4.21416 6.63627 28.493 -3.35104
156 1 2.80944 4.20324 28.4816 -3.35108
157 1 5.61888 9.06931 28.5044 -3.35104
158 1 0 9.06931 28.5044 -3.35104
159 1 7.0236 11.5023 28.5158 -3.35223
160 1 1.40472 11.5023 28.5158 -3.35223
161 1 4.21416 11.5023 28.5158 -3.35223
162 1 2.80944 9.06931 28.5044 -3.35104
163 1 2.80944 0.94862 30.7936 -3.3559
164 1 2.80944 13.9354 28.5271 -3.34153
165 1 0 0.94862 30.7936 -3.3559
166 1 0 13.9354 28.5271 -3.34154
167 1 5.61888 0.94862 30.7936 -3.3559
168 1 5.61888 13.9354 28.5271 -3.34153
169 1 7.0236 3.38164 30.805 -3.34972
170 1 1.40472 3.38164 30.805 -3.34972
171 1 4.21416 3.38164 30.805 -3.34972
182 1 4.21416 13.1138 30.8505 -3.35589
183 1 5.61888 10.6807 30.8392 -3.34972
184 1 0 10.6807 30.8392 -3.34973
186 1 7.0236 13.1138 30.8505 -3.3559
188 1 1.40472 13.1138 30.8505 -3.35589
189 1 2.80944 10.6807 30.8392 -3.34972
172 1 5.61888 7.42612 33.1512 -3.35104
173 1 0 7.42612 33.1512 -3.35104
174 1 7.0236 9.85914 33.1626 -3.35108
175 1 1.40472 9.85914 33.1626 -3.35108
176 1 4.21416 9.85914 33.1626 -3.35108
177 1 2.80944 7.42612 33.1512 -3.35104
178 1 5.61888 12.2922 33.1739 -3.35206
179 1 0 12.2922 33.1739 -3.35206
180 1 2.80944 12.2922 33.1739 -3.35206
181 1 4.21416 0.127019 33.117 -3.34154
185 1 7.0236 0.127019 33.117 -3.34154
187 1 1.40472 0.127019 33.117 -3.34154
190 1 5.61888 2.56006 33.1284 -3.35222
191 1 0 2.56006 33.1284 -3.35222
192 1 7.0236 4.99308 33.1397 -3.35105
193 1 1.40472 4.99308 33.1397 -3.35104
194 1 4.21416 4.99308 33.1397 -3.35104
195 1 2.80944 2.56006 33.1284 -3.35222
196 1 5.61888 12.2604 40.1555 -2.97112
197 1 0 12.2604 40.1555 -2.97112
198 1 2.80944 12.2604 40.1555 -2.97111
199 1 7.0236 9.82739 40.1441 -2.97446
200 1 1.40472 9.82739 40.1441 -2.97446
201 1 4.21416 9.82739 40.1441 -2.97446
202 1 5.61888 5.78293 37.7979 -3.43976
203 1 0 5.78293 37.7979 -3.43976
204 1 7.0236 8.21595 37.8093 -3.43975
205 1 1.40472 8.21595 37.8093 -3.43975
206 1 4.21416 8.21595 37.8093 -3.43975
207 1 2.80944 5.78293 37.7979 -3.43976
208 1 4.21416 0.095268 40.0985 -2.9788
209 1 4.21416 13.082 37.8321 -3.44396
210 1 5.61888 2.52829 40.11 -2.97213
211 1 0 2.52829 40.11 -2.97213
212 1 5.61888 10.649 37.8207 -3.43844
213 1 0 10.649 37.8207 -3.43844
214 1 7.0236 0.095268 40.0985 -2.97881
215 1 7.0236 13.082 37.8321 -3.44396
216 1 1.40472 0.095268 40.0985 -2.97881
217 1 1.40472 13.082 37.8321 -3.44396
218 1 2.80944 2.52829 40.11 -2.97213
219 1 2.80944 10.649 37.8207 -3.43844
220 1 7.0236 4.96133 40.1213 -2.97443
221 1 1.40472 4.96133 40.1213 -2.97443
222 1 5.61888 7.39435 40.1327 -2.97441
223 1 0 7.39435 40.1327 -2.97442
224 1 4.21416 4.96133 40.1213 -2.97442
225 1 2.80944 7.39435 40.1327 -2.97441
226 1 5.61888 9.03756 35.4859 -3.35104
227 1 0 9.03756 35.4859 -3.35105
228 1 7.0236 11.4706 35.4973 -3.35223
229 1 1.40472 11.4706 35.4973 -3.35223
230 1 4.21416 11.4706 35.4973 -3.35223
231 1 2.80944 9.03756 35.4859 -3.35104
232 1 2.80944 0.916869 37.7751 -3.4418
233 1 2.80944 13.9036 35.5087 -3.34154
234 1 0 0.916869 37.7751 -3.44181
235 1 0 13.9036 35.5087 -3.34155
236 1 5.61888 0.916869 37.7751 -3.4418
237 1 5.61888 13.9036 35.5087 -3.34154
238 1 7.0236 3.34989 37.7865 -3.43844
239 1 1.40472 3.34989 37.7865 -3.43843
240 1 4.21416 3.34989 37.7865 -3.43843
241 1 7.0236 1.73846 35.4518 -3.35208
242 1 1.40472 1.73846 35.4518 -3.35207
243 1 4.21416 1.73846 35.4518 -3.35207
244 1 7.0236 6.60452 35.4745 -3.35104
245 1 1.40472 6.60452 35.4745 -3.35104
246 1 5.61888 4.17149 35.4632 -3.35108
247 1 0 4.17149 35.4632 -3.35108
248 1 4.21416 6.60452 35.4745 -3.35104
249 1 2.80944 4.17149 35.4632 -3.35108
