LAMMPS (30 Nov 2020)
  using 1 OpenMP thread(s) per MPI task
Reading data file ...
  orthogonal box = (0.0000000 0.0000000 0.0000000) to (8.4283000 14.598200 49.476269)
  1 by 1 by 2 MPI processor grid
  reading atoms ...
  384 atoms
  read_data CPU = 0.004 seconds
   PairComb3: polarization is off 
  element[1] = Al, z = 2.14332
  element[2] = O , z = 1.37179
144 atoms in group top
222 atoms in group bot
366 atoms in group both_grains
WARNING: Using 'neigh_modify every 1 delay 0 check yes' setting during minimization (../min.cpp:188)
Neighbor list info ...
  update every 1 steps, delay 0 steps, check yes
  max neighbors/atom: 2000, page size: 100000
  master list distance cutoff = 15
  ghost atom cutoff = 15
  binsize = 7.5, bins = 2 2 7
  1 neighbor lists, perpetual/occasional/extra = 1 0 0
  (1) pair comb3, perpetual
      attributes: full, newton on, ghost
      pair build: full/bin/ghost
      stencil: full/ghost/bin/3d
      bin: standard
Setting up cg style minimization ...
  Unit style    : metal
  Current step  : 0
Per MPI rank memory allocation (min/avg/max) = 21.74 | 21.93 | 22.13 Mbytes
Step Temp E_pair E_mol TotEng Press 
       0            0    -1495.441            0    -1495.441    57263.384 
       1            0   -1501.8014            0   -1501.8014    52650.382 
Loop time of 0.100734 on 2 procs for 1 steps with 384 atoms

99.0% CPU use with 2 MPI tasks x 1 OpenMP threads

Minimization stats:
  Stopping criterion = max force evaluations
  Energy initial, next-to-last, final = 
     -1495.44100257988  -1495.44100257988  -1501.80140876259
  Force two-norm initial, final = 28.446865 21.818764
  Force max component initial, final = 11.113530 8.6480616
  Final line search alpha, max atom move = 0.0089980413 0.077815615
  Iterations, force evaluations = 1 1

MPI task timing breakdown:
Section |  min time  |  avg time  |  max time  |%varavg| %total
---------------------------------------------------------------
Pair    | 0.064793   | 0.082599   | 0.10041    |   6.2 | 82.00
Neigh   | 0          | 0          | 0          |   0.0 |  0.00
Comm    | 0.00018298 | 0.017982   | 0.035781   |  13.3 | 17.85
Output  | 0          | 0          | 0          |   0.0 |  0.00
Modify  | 3.6843e-06 | 4.2832e-06 | 4.882e-06  |   0.0 |  0.00
Other   |            | 0.0001489  |            |       |  0.15

Nlocal:        192.000 ave         258 max         126 min
Histogram: 1 0 0 0 0 0 0 0 0 1
Nghost:        5802.00 ave        6081 max        5523 min
Histogram: 1 0 0 0 0 0 0 0 0 1
Neighs:         0.00000 ave           0 max           0 min
Histogram: 2 0 0 0 0 0 0 0 0 0
FullNghs:      196676.0 ave      296040 max       97312 min
Histogram: 1 0 0 0 0 0 0 0 0 1

Total # of neighbors = 393352
Ave neighs/atom = 1024.3542
Neighbor list builds = 0
Dangerous builds = 0
WARNING: Using 'neigh_modify every 1 delay 0 check yes' setting during minimization (../min.cpp:188)
Setting up cg style minimization ...
  Unit style    : metal
  Current step  : 1
Per MPI rank memory allocation (min/avg/max) = 21.86 | 22.06 | 22.25 Mbytes
Step Temp E_pair E_mol TotEng Press 
       1            0   -1501.8014            0   -1501.8014    52650.382 
      27            0   -1527.4231            0   -1527.4231    43074.497 
Loop time of 2.14166 on 2 procs for 26 steps with 384 atoms

98.4% CPU use with 2 MPI tasks x 1 OpenMP threads

Minimization stats:
  Stopping criterion = energy tolerance
  Energy initial, next-to-last, final = 
     -1501.80140876259  -1527.42266025241   -1527.4230773997
  Force two-norm initial, final = 21.818764 0.40716278
  Force max component initial, final = 8.6480616 0.24205207
  Final line search alpha, max atom move = 0.72939059 0.17655050
  Iterations, force evaluations = 26 40

MPI task timing breakdown:
Section |  min time  |  avg time  |  max time  |%varavg| %total
---------------------------------------------------------------
Pair    | 1.3751     | 1.7529     | 2.1307     |  28.5 | 81.85
Neigh   | 0          | 0          | 0          |   0.0 |  0.00
Comm    | 0.0044252  | 0.38205    | 0.75966    |  61.1 | 17.84
Output  | 0          | 0          | 0          |   0.0 |  0.00
Modify  | 0.00010383 | 0.00011364 | 0.00012346 |   0.0 |  0.01
Other   |            | 0.006573   |            |       |  0.31

Nlocal:        192.000 ave         258 max         126 min
Histogram: 1 0 0 0 0 0 0 0 0 1
Nghost:        5802.00 ave        6081 max        5523 min
Histogram: 1 0 0 0 0 0 0 0 0 1
Neighs:         0.00000 ave           0 max           0 min
Histogram: 2 0 0 0 0 0 0 0 0 0
FullNghs:      196647.0 ave      295944 max       97350 min
Histogram: 1 0 0 0 0 0 0 0 0 1

Total # of neighbors = 393294
Ave neighs/atom = 1024.2031
Neighbor list builds = 0
Dangerous builds = 0
Total wall time: 0:00:02
