ITEM: TIMESTEP
27
ITEM: NUMBER OF ATOMS
384
ITEM: BOX BOUNDS pp pp pp
0.0000000000000000e+00 8.4283000000000001e+00
0.0000000000000000e+00 1.4598200000000000e+01
0.0000000000000000e+00 4.9476269000000002e+01
ITEM: ATOMS id type x y z c_peatom
68 1 2.92401 12.1652 3.61953 -2.2941
69 1 7.13816 4.86606 3.61953 -2.29409
70 1 5.73344 7.2991 5.31004 -6.5982
71 1 7.13816 9.73214 3.61953 -2.29409
72 1 5.73344 12.1652 5.31004 -6.5982
73 1 7.13816 0 3.61953 -2.29408
74 1 5.73344 2.43304 5.31004 -6.5982
75 1 2.92401 7.2991 3.61953 -2.29408
76 1 1.51929 9.73212 5.31004 -6.59819
77 1 2.92401 2.43304 3.61953 -2.29408
78 1 1.51929 4.86606 5.31004 -6.5982
79 1 1.51929 0 5.31004 -6.59819
80 1 0.114574 7.2991 5.80124 -6.54405
81 1 4.32872 9.73212 5.80124 -6.54404
82 1 2.92401 7.2991 7.4917 -6.40207
83 1 0.114574 12.1652 5.80124 -6.54405
84 1 7.13816 9.73214 7.4917 -6.40206
85 1 4.32872 0 5.80124 -6.54405
86 1 2.92401 12.1652 7.4917 -6.40208
87 1 0.114574 2.43304 5.80124 -6.54404
88 1 7.13816 0 7.4917 -6.40207
89 1 4.32872 4.86606 5.80124 -6.54403
90 1 2.92401 2.43304 7.4917 -6.40207
91 1 7.13816 4.86606 7.4917 -6.40206
92 1 5.73344 12.1652 7.98285 -6.40205
95 1 5.73344 7.2991 7.98285 -6.40204
96 1 1.51929 9.73212 7.98285 -6.40204
99 1 5.73344 2.43304 7.98285 -6.40204
100 1 1.51929 4.86606 7.98285 -6.40204
102 1 1.51929 0 7.98285 -6.40204
104 1 4.32872 9.73212 3.12833 -3.27315
105 1 4.32872 4.86606 3.12833 -3.27316
106 1 0.114574 12.1652 3.12833 -3.27315
107 1 0.114574 2.43304 3.12833 -3.27315
108 1 0.114574 7.2991 3.12833 -3.27315
109 1 4.32872 0 3.12833 -3.27314
331 2 3.03858 10.477 4.46474 -3.32409
332 2 1.40472 12.91 4.46474 -3.32409
333 2 4.32872 13.1085 4.46474 -3.32408
334 2 7.25273 3.1779 4.46474 -3.32408
335 2 0.114574 5.80937 4.46474 -3.32409
336 2 5.61887 5.61093 4.46474 -3.32408
337 2 0.114574 10.6754 4.46474 -3.32409
338 2 5.61887 10.477 4.46474 -3.32408
339 2 7.25273 8.04396 4.46474 -3.32409
340 2 0.114574 0.943306 4.46474 -3.32409
341 2 5.61887 0.744873 4.46474 -3.32408
342 2 7.25273 12.91 4.46474 -3.32408
343 2 1.40472 8.04396 4.46474 -3.32407
344 2 4.32872 8.24241 4.46474 -3.32408
345 2 3.03858 5.61092 4.46474 -3.32409
346 2 1.40472 3.1779 4.46474 -3.32408
347 2 4.32872 3.37635 4.46474 -3.32409
348 2 3.03858 0.744859 4.46474 -3.32408
349 2 0.22914 8.98727 6.64644 -4.12705
350 2 7.02359 6.55424 6.64644 -4.12705
351 2 1.51929 6.35579 6.64644 -4.12705
352 2 5.73344 8.78883 6.64644 -4.12705
353 2 2.80944 8.98727 6.64644 -4.12704
354 2 4.44329 11.4203 6.64644 -4.12706
355 2 0.22914 13.8533 6.64644 -4.12706
356 2 7.02359 11.4203 6.64644 -4.12704
357 2 1.51929 11.2219 6.64644 -4.12706
358 2 4.44329 1.68816 6.64644 -4.12706
359 2 5.73344 13.6549 6.64644 -4.12705
360 2 2.80944 13.8533 6.64644 -4.12705
361 2 0.22914 4.1212 6.64644 -4.12705
362 2 1.51929 1.48973 6.64644 -4.12705
363 2 7.02359 1.68816 6.64644 -4.12705
364 2 2.80944 4.1212 6.64644 -4.12704
365 2 5.73344 3.92275 6.64644 -4.12704
366 2 4.44329 6.55424 6.64644 -4.12706
32 1 5.73344 2.43304 14.5279 -6.40125
33 1 4.32872 4.86606 16.2184 -6.3976
34 1 5.73344 12.1652 14.5279 -6.40126
35 1 5.73344 7.2991 14.5279 -6.40126
36 1 4.32872 9.73212 16.2184 -6.42013
37 1 1.51928 4.86606 14.5279 -6.40124
38 1 0.114574 2.43304 16.2184 -6.42014
39 1 1.51928 0 14.5279 -6.40125
40 1 0.114574 12.1652 16.2184 -6.42014
41 1 1.51928 9.73212 14.5279 -6.40124
42 1 0.114574 7.2991 16.2184 -6.40413
43 1 4.32872 0 16.2184 -6.40365
44 1 2.92401 12.1652 10.1646 -6.40196
45 1 2.92401 7.2991 10.1646 -6.40195
46 1 1.51929 9.73212 11.855 -6.4021
47 1 7.13816 4.86606 10.1646 -6.40194
48 1 5.73344 2.43304 11.855 -6.40212
49 1 7.13816 0 10.1646 -6.40195
50 1 5.73344 12.1652 11.855 -6.40212
51 1 7.13816 9.73214 10.1646 -6.40194
52 1 5.73344 7.2991 11.855 -6.40212
53 1 2.92401 2.43304 10.1646 -6.40195
54 1 1.51929 0 11.855 -6.40212
55 1 1.51929 4.86606 11.855 -6.4021
56 1 4.32872 0 12.3462 -6.40196
57 1 2.92401 2.43304 14.0367 -6.38416
58 1 7.13816 0 14.0367 -6.38415
59 1 0.114574 7.2991 12.3462 -6.40197
60 1 0.114574 2.43304 12.3462 -6.40196
61 1 7.13816 4.86606 14.0367 -6.38415
62 1 4.32872 4.86606 12.3462 -6.40196
63 1 2.92401 7.2991 14.0367 -6.38417
64 1 0.114574 12.1652 12.3462 -6.40197
65 1 4.32872 9.73212 12.3462 -6.40196
66 1 7.13816 9.73214 14.0367 -6.38415
67 1 2.92401 12.1652 14.0367 -6.38418
93 1 0.114574 12.1652 9.67335 -6.40208
94 1 4.32872 9.73212 9.67335 -6.40207
97 1 0.114574 7.2991 9.67335 -6.40207
98 1 4.32872 4.86606 9.67335 -6.40207
101 1 0.114574 2.43304 9.67335 -6.40207
103 1 4.32872 0 9.67335 -6.40207
277 2 5.84801 4.1212 15.3731 -4.12743
278 2 7.13816 1.48973 15.3731 -4.12743
279 2 4.21415 1.68818 15.3731 -4.12744
280 2 5.84801 13.8533 15.3731 -4.12743
281 2 7.13816 11.2219 15.3731 -4.12743
282 2 4.21415 11.4203 15.3731 -4.12745
283 2 5.84801 8.98727 15.3731 -4.12743
284 2 7.13816 6.35579 15.3731 -4.12744
285 2 4.21415 6.55424 15.3731 -4.12745
286 2 0 4.1212 15.3731 -4.12742
287 2 2.92401 3.92275 15.3731 -4.12744
288 2 1.63386 6.55424 15.3731 -4.12744
289 2 1.63386 1.68816 15.3731 -4.12743
290 2 0 13.8533 15.3731 -4.12744
291 2 2.92401 13.6549 15.3731 -4.12745
292 2 0 8.98727 15.3731 -4.12744
293 2 2.92401 8.78882 15.3731 -4.12744
294 2 1.63386 11.4203 15.3731 -4.12744
295 2 3.03858 13.8533 11.0098 -4.12708
296 2 1.40472 11.4203 11.0098 -4.12708
297 2 4.32872 11.2219 11.0098 -4.12709
298 2 3.03858 8.98727 11.0098 -4.12707
299 2 1.40472 6.55424 11.0098 -4.12709
300 2 4.32872 6.35579 11.0098 -4.12709
301 2 5.61887 4.1212 11.0098 -4.12707
302 2 0.114574 3.92275 11.0098 -4.12708
303 2 7.25273 6.55424 11.0098 -4.12709
304 2 0.114574 13.6549 11.0098 -4.12709
305 2 5.61887 13.8533 11.0098 -4.12707
306 2 7.25273 1.68818 11.0098 -4.12709
307 2 7.25273 11.4203 11.0098 -4.12707
308 2 5.61887 8.98727 11.0098 -4.12708
309 2 0.114574 8.78882 11.0098 -4.12709
310 2 3.03858 4.1212 11.0098 -4.12707
311 2 4.32872 1.48973 11.0098 -4.12708
312 2 1.40472 1.68816 11.0098 -4.12708
313 2 5.73344 0.943306 13.1914 -4.12709
314 2 2.80944 0.744873 13.1914 -4.12708
315 2 4.44329 12.91 13.1914 -4.1271
316 2 0.22914 5.61093 13.1914 -4.12709
317 2 7.02359 8.04396 13.1914 -4.12709
318 2 1.51929 8.24241 13.1914 -4.12708
319 2 0.22914 0.744873 13.1914 -4.12709
320 2 7.02359 3.1779 13.1914 -4.12708
321 2 1.51929 3.37635 13.1914 -4.12708
322 2 4.44329 3.1779 13.1914 -4.12709
323 2 5.73344 5.80937 13.1914 -4.1271
324 2 2.80944 5.61093 13.1914 -4.12709
325 2 0.22914 10.477 13.1914 -4.12709
326 2 7.02359 12.91 13.1914 -4.12709
327 2 1.51929 13.1085 13.1914 -4.12709
328 2 4.44329 8.04396 13.1914 -4.12709
329 2 5.73344 10.6754 13.1914 -4.12709
330 2 2.80944 10.477 13.1914 -4.12709
367 2 5.84801 10.477 8.8281 -4.12712
368 2 7.13816 13.1085 8.8281 -4.12713
369 2 0 10.477 8.8281 -4.12713
370 2 1.63386 12.91 8.8281 -4.12713
371 2 4.21415 8.04396 8.8281 -4.12713
372 2 5.84801 5.61093 8.8281 -4.12712
373 2 7.13816 8.24241 8.8281 -4.12713
374 2 1.63386 8.04396 8.8281 -4.12711
375 2 2.92401 10.6754 8.8281 -4.12713
376 2 4.21415 3.1779 8.8281 -4.12712
377 2 5.84801 0.744873 8.8281 -4.12712
378 2 7.13816 3.37635 8.8281 -4.12712
379 2 1.63386 3.1779 8.8281 -4.12711
380 2 2.92401 5.80937 8.8281 -4.12713
381 2 2.92401 0.943306 8.8281 -4.12713
382 2 4.21415 12.91 8.8281 -4.12713
383 2 0 0.744859 8.8281 -4.12713
384 2 0 5.61092 8.8281 -4.12714
2 1 7.0236 13.1455 23.869 -2.95683
4 1 1.40472 13.1455 23.869 -3.06362
6 1 4.21416 13.1455 23.869 -3.20839
7 1 7.13816 9.73214 19.0018 -2.41581
8 1 0.114574 12.1652 18.5106 -3.07903
9 1 2.92401 7.2991 19.0018 -2.86216
10 1 2.9958 7.20149 21.5968 -3.49618
11 1 4.32872 9.73212 18.5106 -3.06301
12 1 7.13816 4.86606 19.0018 -2.90271
13 1 6.95559 4.95047 21.6157 -2.69077
14 1 0.373994 6.8299 21.2751 -3.33282
15 1 0.114574 7.2991 18.5106 -3.20166
16 1 2.92401 2.43304 19.0018 -2.90227
17 1 2.86174 2.64294 21.6109 -2.64878
18 1 4.32239 4.87225 20.9968 -2.46198
19 1 4.32872 4.86606 18.5106 -3.27061
20 1 7.13816 0 19.0018 -2.41578
21 1 0.114574 2.43304 18.5106 -3.0661
22 1 2.92401 12.1652 19.0018 -2.71417
23 1 3.30622 11.9455 21.6774 -3.0501
24 1 3.76618 0.135114 21.2325 -4.19963
25 1 4.32872 0 18.5106 -3.17762
26 1 2.92401 12.1652 16.7095 -6.6404
27 1 7.13816 4.86606 16.7095 -6.63017
28 1 7.13816 9.73214 16.7095 -6.65975
29 1 2.92401 2.43304 16.7095 -6.62889
30 1 2.92401 7.2991 16.7095 -6.62972
31 1 7.13816 0 16.7095 -6.6594
110 1 0 0.980371 23.812 -2.92958
111 1 5.61888 0.980371 23.812 -2.99863
112 1 2.80944 0.980371 23.812 -3.25445
113 1 4.21416 3.41341 23.8235 -3.26382
114 1 1.40472 3.41341 23.8235 -3.12187
115 1 7.0236 3.41341 23.8235 -3.14583
116 1 0 5.84643 23.8348 -3.27764
117 1 5.61888 5.84643 23.8348 -3.23772
118 1 2.80944 5.84643 23.8348 -3.18241
119 1 4.21416 8.27947 23.8462 -3.10457
120 1 1.40472 8.27947 23.8462 -3.17192
121 1 7.0236 8.27947 23.8462 -2.9926
122 1 0 10.7125 23.8576 -2.93886
123 1 5.61888 10.7125 23.8576 -3.02912
124 1 2.80944 10.7125 23.8576 -3.12749
248 2 7.77404 8.41856 21.2695 -0.908773
249 2 0.0929475 10.687 21.1152 0
250 2 2.30057 13.547 21.2407 -1.62901
251 2 1.40472 12.91 17.5548 -3.24813
252 2 7.25273 12.91 17.5548 -3.2485
253 2 0.114574 10.6754 17.5548 -3.24847
254 2 3.64833 8.93354 21.1446 -0.906475
255 2 4.32872 8.24241 17.5548 -3.24803
256 2 5.61887 10.477 17.5548 -3.2485
257 2 3.03858 10.477 17.5548 -3.24812
258 2 7.1387 3.10701 21.1131 -0.648206
259 2 1.52885 8.36372 21.1296 -1.59141
260 2 0.114574 5.80937 17.5548 -3.24779
261 2 1.40472 8.04397 17.5548 -3.24779
262 2 7.25273 8.04397 17.5548 -3.24828
263 2 4.32872 3.37635 17.5548 -3.24777
264 2 5.61887 5.61093 17.5548 -3.2478
265 2 3.03858 5.61093 17.5548 -3.2478
266 2 7.13662 12.9371 21.1317 0
267 2 0.104005 0.962891 21.1047 0
268 2 1.18658 3.36431 21.0164 -0.648619
269 2 1.40472 3.1779 17.5548 -3.24803
270 2 7.25273 3.1779 17.5548 -3.24805
271 2 0.114574 0.943306 17.5548 -3.24851
272 2 4.63217 13.1029 20.8623 -1.75442
273 2 5.54124 0.813114 21.0914 -0.935312
274 2 4.32872 13.1085 17.5548 -3.24815
275 2 3.03858 0.744873 17.5548 -3.2478
276 2 5.61887 0.744873 17.5548 -3.24825
1 1 7.0236 0.158785 26.1354 -3.42341
3 1 1.40472 0.158785 26.1354 -3.39686
5 1 4.21416 0.158785 26.1354 -3.38909
125 1 5.61888 2.59181 26.1468 -3.39413
126 1 0 2.59181 26.1468 -3.4114
127 1 2.80944 2.59181 26.1468 -3.39511
128 1 7.0236 5.02485 26.1582 -3.39316
129 1 1.40472 5.02485 26.1582 -3.37401
130 1 5.61888 7.45787 26.1696 -3.39718
131 1 0 7.45787 26.1696 -3.40352
132 1 4.21416 5.02485 26.1582 -3.38813
133 1 2.80944 7.45787 26.1696 -3.40259
134 1 7.0236 9.89091 26.181 -3.42244
135 1 1.40472 9.89091 26.181 -3.39658
136 1 5.61888 12.3239 26.1924 -3.41515
137 1 0 12.3239 26.1924 -3.4324
138 1 4.21416 9.89091 26.181 -3.40761
139 1 2.80944 12.3239 26.1924 -3.40803
140 1 5.61888 5.81468 30.8164 -3.35104
141 1 0 5.81468 30.8164 -3.35104
142 1 7.0236 8.24771 30.8277 -3.35103
143 1 1.40472 8.24771 30.8277 -3.35103
144 1 4.21416 8.24771 30.8277 -3.35103
145 1 2.80944 5.81468 30.8164 -3.35104
146 1 7.0236 1.77021 28.4702 -3.35207
147 1 1.40472 1.77021 28.4702 -3.35207
148 1 4.21416 1.77021 28.4702 -3.35207
149 1 7.0236 6.63627 28.493 -3.35105
150 1 1.40472 6.63627 28.493 -3.35104
151 1 5.61888 4.20324 28.4816 -3.35108
152 1 0 4.20324 28.4816 -3.35108
153 1 4.21416 6.63627 28.493 -3.35104
154 1 2.80944 4.20324 28.4816 -3.35108
155 1 5.61888 9.06931 28.5044 -3.35104
156 1 0 9.06931 28.5044 -3.35104
157 1 7.0236 11.5023 28.5158 -3.35223
158 1 1.40472 11.5023 28.5158 -3.35223
159 1 4.21416 11.5023 28.5158 -3.35223
160 1 2.80944 9.06931 28.5044 -3.35104
161 1 2.80944 0.94862 30.7936 -3.3559
162 1 2.80944 13.9354 28.5271 -3.34153
163 1 0 0.94862 30.7936 -3.3559
164 1 0 13.9354 28.5271 -3.34154
165 1 5.61888 0.94862 30.7936 -3.3559
166 1 5.61888 13.9354 28.5271 -3.34153
167 1 7.0236 3.38164 30.805 -3.34972
168 1 1.40472 3.38164 30.805 -3.34972
169 1 4.21416 3.38164 30.805 -3.34972
180 1 4.21416 13.1138 30.8505 -3.35589
181 1 5.61888 10.6807 30.8392 -3.34972
182 1 0 10.6807 30.8392 -3.34973
184 1 7.0236 13.1138 30.8505 -3.3559
186 1 1.40472 13.1138 30.8505 -3.35589
187 1 2.80944 10.6807 30.8392 -3.34972
170 1 5.61888 7.42612 33.1512 -3.35104
171 1 0 7.42612 33.1512 -3.35104
172 1 7.0236 9.85914 33.1626 -3.35108
173 1 1.40472 9.85914 33.1626 -3.35108
174 1 4.21416 9.85914 33.1626 -3.35108
175 1 2.80944 7.42612 33.1512 -3.35104
176 1 5.61888 12.2922 33.1739 -3.35206
177 1 0 12.2922 33.1739 -3.35206
178 1 2.80944 12.2922 33.1739 -3.35206
179 1 4.21416 0.127019 33.117 -3.34154
183 1 7.0236 0.127019 33.117 -3.34154
185 1 1.40472 0.127019 33.117 -3.34154
188 1 5.61888 2.56006 33.1284 -3.35222
189 1 0 2.56006 33.1284 -3.35222
190 1 7.0236 4.99308 33.1397 -3.35105
191 1 1.40472 4.99308 33.1397 -3.35104
192 1 4.21416 4.99308 33.1397 -3.35104
193 1 2.80944 2.56006 33.1284 -3.35222
194 1 5.61888 12.2604 40.1555 -2.97112
195 1 0 12.2604 40.1555 -2.97112
196 1 2.80944 12.2604 40.1555 -2.97111
197 1 7.0236 9.82739 40.1441 -2.97446
198 1 1.40472 9.82739 40.1441 -2.97446
199 1 4.21416 9.82739 40.1441 -2.97446
200 1 5.61888 5.78293 37.7979 -3.43976
201 1 0 5.78293 37.7979 -3.43976
202 1 7.0236 8.21595 37.8093 -3.43975
203 1 1.40472 8.21595 37.8093 -3.43975
204 1 4.21416 8.21595 37.8093 -3.43975
205 1 2.80944 5.78293 37.7979 -3.43976
206 1 4.21416 0.095268 40.0985 -2.9788
207 1 4.21416 13.082 37.8321 -3.44396
208 1 5.61888 2.52829 40.11 -2.97213
209 1 0 2.52829 40.11 -2.97213
210 1 5.61888 10.649 37.8207 -3.43844
211 1 0 10.649 37.8207 -3.43844
212 1 7.0236 0.095268 40.0985 -2.97881
213 1 7.0236 13.082 37.8321 -3.44396
214 1 1.40472 0.095268 40.0985 -2.97881
215 1 1.40472 13.082 37.8321 -3.44396
216 1 2.80944 2.52829 40.11 -2.97213
217 1 2.80944 10.649 37.8207 -3.43844
218 1 7.0236 4.96133 40.1213 -2.97443
219 1 1.40472 4.96133 40.1213 -2.97443
220 1 5.61888 7.39435 40.1327 -2.97441
221 1 0 7.39435 40.1327 -2.97442
222 1 4.21416 4.96133 40.1213 -2.97442
223 1 2.80944 7.39435 40.1327 -2.97441
224 1 5.61888 9.03756 35.4859 -3.35104
225 1 0 9.03756 35.4859 -3.35105
226 1 7.0236 11.4706 35.4973 -3.35223
227 1 1.40472 11.4706 35.4973 -3.35223
228 1 4.21416 11.4706 35.4973 -3.35223
229 1 2.80944 9.03756 35.4859 -3.35104
230 1 2.80944 0.916869 37.7751 -3.4418
231 1 2.80944 13.9036 35.5087 -3.34154
232 1 0 0.916869 37.7751 -3.44181
233 1 0 13.9036 35.5087 -3.34155
234 1 5.61888 0.916869 37.7751 -3.4418
235 1 5.61888 13.9036 35.5087 -3.34154
236 1 7.0236 3.34989 37.7865 -3.43844
237 1 1.40472 3.34989 37.7865 -3.43843
238 1 4.21416 3.34989 37.7865 -3.43843
239 1 7.0236 1.73846 35.4518 -3.35208
240 1 1.40472 1.73846 35.4518 -3.35207
241 1 4.21416 1.73846 35.4518 -3.35207
242 1 7.0236 6.60452 35.4745 -3.35104
243 1 1.40472 6.60452 35.4745 -3.35104
244 1 5.61888 4.17149 35.4632 -3.35108
245 1 0 4.17149 35.4632 -3.35108
246 1 4.21416 6.60452 35.4745 -3.35104
247 1 2.80944 4.17149 35.4632 -3.35108
