ITEM: TIMESTEP
38
ITEM: NUMBER OF ATOMS
384
ITEM: BOX BOUNDS pp pp pp
0.0000000000000000e+00 8.4283000000000001e+00
0.0000000000000000e+00 1.4598200000000000e+01
0.0000000000000000e+00 4.9476269000000002e+01
ITEM: ATOMS id type x y z c_peatom
74 1 2.92401 12.1652 3.61953 -2.2941
75 1 7.13816 4.86606 3.61953 -2.29409
76 1 5.73344 7.2991 5.31004 -6.5982
77 1 7.13816 9.73214 3.61953 -2.29409
78 1 5.73344 12.1652 5.31004 -6.5982
79 1 7.13816 0 3.61953 -2.29408
80 1 5.73344 2.43304 5.31004 -6.5982
81 1 2.92401 7.2991 3.61953 -2.29408
82 1 1.51929 9.73212 5.31004 -6.59819
83 1 2.92401 2.43304 3.61953 -2.29408
84 1 1.51929 4.86606 5.31004 -6.5982
85 1 1.51929 0 5.31004 -6.59819
86 1 0.114574 7.2991 5.80124 -6.54405
87 1 4.32872 9.73212 5.80124 -6.54404
88 1 2.92401 7.2991 7.4917 -6.40207
89 1 0.114574 12.1652 5.80124 -6.54405
90 1 7.13816 9.73214 7.4917 -6.40206
91 1 4.32872 0 5.80124 -6.54405
92 1 2.92401 12.1652 7.4917 -6.40208
93 1 0.114574 2.43304 5.80124 -6.54404
94 1 7.13816 0 7.4917 -6.40207
95 1 4.32872 4.86606 5.80124 -6.54403
96 1 2.92401 2.43304 7.4917 -6.40207
97 1 7.13816 4.86606 7.4917 -6.40206
98 1 5.73344 12.1652 7.98285 -6.40205
101 1 5.73344 7.2991 7.98285 -6.40204
102 1 1.51929 9.73212 7.98285 -6.40204
105 1 5.73344 2.43304 7.98285 -6.40204
106 1 1.51929 4.86606 7.98285 -6.40204
108 1 1.51929 0 7.98285 -6.40204
110 1 4.32872 9.73212 3.12833 -3.27315
111 1 4.32872 4.86606 3.12833 -3.27316
112 1 0.114574 12.1652 3.12833 -3.27315
113 1 0.114574 2.43304 3.12833 -3.27315
114 1 0.114574 7.2991 3.12833 -3.27315
115 1 4.32872 0 3.12833 -3.27314
329 2 3.03858 10.477 4.46474 -3.32409
330 2 1.40472 12.91 4.46474 -3.32409
331 2 4.32872 13.1085 4.46474 -3.32408
332 2 7.25273 3.1779 4.46474 -3.32408
333 2 0.114574 5.80937 4.46474 -3.32409
334 2 5.61887 5.61093 4.46474 -3.32408
335 2 0.114574 10.6754 4.46474 -3.32409
336 2 5.61887 10.477 4.46474 -3.32408
337 2 7.25273 8.04396 4.46474 -3.32409
338 2 0.114574 0.943306 4.46474 -3.32409
339 2 5.61887 0.744873 4.46474 -3.32408
340 2 7.25273 12.91 4.46474 -3.32408
341 2 1.40472 8.04396 4.46474 -3.32407
342 2 4.32872 8.24241 4.46474 -3.32408
343 2 3.03858 5.61092 4.46474 -3.32409
344 2 1.40472 3.1779 4.46474 -3.32408
345 2 4.32872 3.37635 4.46474 -3.32409
346 2 3.03858 0.744859 4.46474 -3.32408
347 2 0.22914 8.98727 6.64644 -4.12705
348 2 7.02359 6.55424 6.64644 -4.12705
349 2 1.51929 6.35579 6.64644 -4.12705
350 2 5.73344 8.78883 6.64644 -4.12705
351 2 2.80944 8.98727 6.64644 -4.12704
352 2 4.44329 11.4203 6.64644 -4.12706
353 2 0.22914 13.8533 6.64644 -4.12706
354 2 7.02359 11.4203 6.64644 -4.12704
355 2 1.51929 11.2219 6.64644 -4.12706
356 2 4.44329 1.68816 6.64644 -4.12706
357 2 5.73344 13.6549 6.64644 -4.12705
358 2 2.80944 13.8533 6.64644 -4.12705
359 2 0.22914 4.1212 6.64644 -4.12705
360 2 1.51929 1.48973 6.64644 -4.12705
361 2 7.02359 1.68816 6.64644 -4.12705
362 2 2.80944 4.1212 6.64644 -4.12704
363 2 5.73344 3.92275 6.64644 -4.12704
364 2 4.44329 6.55424 6.64644 -4.12706
38 1 5.73344 2.43304 14.5279 -6.40125
39 1 4.32872 4.86606 16.2184 -6.42013
40 1 5.73344 12.1652 14.5279 -6.40126
41 1 5.73344 7.2991 14.5279 -6.40126
42 1 4.32872 9.73212 16.2184 -6.34828
43 1 1.51928 4.86606 14.5279 -6.40124
44 1 0.114574 2.43304 16.2184 -6.33146
45 1 1.51928 0 14.5279 -6.40125
46 1 0.114574 12.1652 16.2184 -6.31525
47 1 1.51928 9.73212 14.5279 -6.40124
48 1 0.114574 7.2991 16.2184 -6.38174
49 1 4.32872 0 16.2184 -6.3497
50 1 2.92401 12.1652 10.1646 -6.40196
51 1 2.92401 7.2991 10.1646 -6.40195
52 1 1.51929 9.73212 11.855 -6.4021
53 1 7.13816 4.86606 10.1646 -6.40194
54 1 5.73344 2.43304 11.855 -6.40212
55 1 7.13816 0 10.1646 -6.40195
56 1 5.73344 12.1652 11.855 -6.40212
57 1 7.13816 9.73214 10.1646 -6.40194
58 1 5.73344 7.2991 11.855 -6.40212
59 1 2.92401 2.43304 10.1646 -6.40195
60 1 1.51929 0 11.855 -6.40212
61 1 1.51929 4.86606 11.855 -6.4021
62 1 4.32872 0 12.3462 -6.40196
63 1 2.92401 2.43304 14.0367 -6.38416
64 1 7.13816 0 14.0367 -6.38415
65 1 0.114574 7.2991 12.3462 -6.40197
66 1 0.114574 2.43304 12.3462 -6.40196
67 1 7.13816 4.86606 14.0367 -6.38415
68 1 4.32872 4.86606 12.3462 -6.40196
69 1 2.92401 7.2991 14.0367 -6.38417
70 1 0.114574 12.1652 12.3462 -6.40197
71 1 4.32872 9.73212 12.3462 -6.40196
72 1 7.13816 9.73214 14.0367 -6.38415
73 1 2.92401 12.1652 14.0367 -6.38418
99 1 0.114574 12.1652 9.67335 -6.40208
100 1 4.32872 9.73212 9.67335 -6.40207
103 1 0.114574 7.2991 9.67335 -6.40207
104 1 4.32872 4.86606 9.67335 -6.40207
107 1 0.114574 2.43304 9.67335 -6.40207
109 1 4.32872 0 9.67335 -6.40207
275 2 5.84801 4.1212 15.3731 -4.12743
276 2 7.13816 1.48973 15.3731 -4.12743
277 2 4.21415 1.68818 15.3731 -4.12744
278 2 5.84801 13.8533 15.3731 -4.12743
279 2 7.13816 11.2219 15.3731 -4.12743
280 2 4.21415 11.4203 15.3731 -4.12745
281 2 5.84801 8.98727 15.3731 -4.12743
282 2 7.13816 6.35579 15.3731 -4.12744
283 2 4.21415 6.55424 15.3731 -4.12745
284 2 0 4.1212 15.3731 -4.12742
285 2 2.92401 3.92275 15.3731 -4.12744
286 2 1.63386 6.55424 15.3731 -4.12744
287 2 1.63386 1.68816 15.3731 -4.12743
288 2 0 13.8533 15.3731 -4.12744
289 2 2.92401 13.6549 15.3731 -4.12745
290 2 0 8.98727 15.3731 -4.12744
291 2 2.92401 8.78882 15.3731 -4.12744
292 2 1.63386 11.4203 15.3731 -4.12744
293 2 3.03858 13.8533 11.0098 -4.12708
294 2 1.40472 11.4203 11.0098 -4.12708
295 2 4.32872 11.2219 11.0098 -4.12709
296 2 3.03858 8.98727 11.0098 -4.12707
297 2 1.40472 6.55424 11.0098 -4.12709
298 2 4.32872 6.35579 11.0098 -4.12709
299 2 5.61887 4.1212 11.0098 -4.12707
300 2 0.114574 3.92275 11.0098 -4.12708
301 2 7.25273 6.55424 11.0098 -4.12709
302 2 0.114574 13.6549 11.0098 -4.12709
303 2 5.61887 13.8533 11.0098 -4.12707
304 2 7.25273 1.68818 11.0098 -4.12709
305 2 7.25273 11.4203 11.0098 -4.12707
306 2 5.61887 8.98727 11.0098 -4.12708
307 2 0.114574 8.78882 11.0098 -4.12709
308 2 3.03858 4.1212 11.0098 -4.12707
309 2 4.32872 1.48973 11.0098 -4.12708
310 2 1.40472 1.68816 11.0098 -4.12708
311 2 5.73344 0.943306 13.1914 -4.12709
312 2 2.80944 0.744873 13.1914 -4.12708
313 2 4.44329 12.91 13.1914 -4.1271
314 2 0.22914 5.61093 13.1914 -4.12709
315 2 7.02359 8.04396 13.1914 -4.12709
316 2 1.51929 8.24241 13.1914 -4.12708
317 2 0.22914 0.744873 13.1914 -4.12709
318 2 7.02359 3.1779 13.1914 -4.12708
319 2 1.51929 3.37635 13.1914 -4.12708
320 2 4.44329 3.1779 13.1914 -4.12709
321 2 5.73344 5.80937 13.1914 -4.1271
322 2 2.80944 5.61093 13.1914 -4.12709
323 2 0.22914 10.477 13.1914 -4.12709
324 2 7.02359 12.91 13.1914 -4.12709
325 2 1.51929 13.1085 13.1914 -4.12709
326 2 4.44329 8.04396 13.1914 -4.12709
327 2 5.73344 10.6754 13.1914 -4.12709
328 2 2.80944 10.477 13.1914 -4.12709
365 2 5.84801 10.477 8.8281 -4.12712
366 2 7.13816 13.1085 8.8281 -4.12713
367 2 0 10.477 8.8281 -4.12713
368 2 1.63386 12.91 8.8281 -4.12713
369 2 4.21415 8.04396 8.8281 -4.12713
370 2 5.84801 5.61093 8.8281 -4.12712
371 2 7.13816 8.24241 8.8281 -4.12713
372 2 1.63386 8.04396 8.8281 -4.12711
373 2 2.92401 10.6754 8.8281 -4.12713
374 2 4.21415 3.1779 8.8281 -4.12712
375 2 5.84801 0.744873 8.8281 -4.12712
376 2 7.13816 3.37635 8.8281 -4.12712
377 2 1.63386 3.1779 8.8281 -4.12711
378 2 2.92401 5.80937 8.8281 -4.12713
379 2 2.92401 0.943306 8.8281 -4.12713
380 2 4.21415 12.91 8.8281 -4.12713
381 2 0 0.744859 8.8281 -4.12713
382 2 0 5.61092 8.8281 -4.12714
1 1 7.0236 3.41341 23.8235 -3.02735
2 1 1.40472 3.41341 23.8235 -3.18786
3 1 5.61888 5.84643 23.8348 -2.96364
4 1 0 5.84643 23.8348 -3.2301
5 1 4.21416 3.41341 23.8235 -2.94402
6 1 2.80944 5.84643 23.8348 -3.14852
19 1 8.02623 11.2855 21.3824 -2.60785
20 1 2.15813 11.954 21.5835 -2.5683
21 1 2.92401 12.1652 19.0018 -6.03759
22 1 7.13816 0 19.0018 -6.22758
23 1 1.6789 -0.0881188 21.3167 -3.95429
24 1 7.73396 0.390218 21.1803 -3.81978
25 1 4.32872 4.86606 18.5106 -3.04213
26 1 2.92401 7.2991 16.7095 -6.6212
27 1 4.32872 9.73212 18.5106 -5.77097
28 1 2.92401 12.1652 16.7095 -6.44808
29 1 0.114574 12.1652 18.5106 -7.09051
30 1 0.114574 7.2991 18.5106 -4.33699
31 1 7.13816 9.73214 16.7095 -6.44313
32 1 0.114574 2.43304 18.5106 -5.51788
33 1 7.13816 4.86606 16.7095 -6.61549
34 1 4.32872 0 18.5106 -5.0892
35 1 4.44806 0.327382 21.178 -2.27276
36 1 2.92401 2.43304 16.7095 -6.58634
37 1 7.13816 0 16.7095 -6.42051
116 1 7.13816 4.86606 19.0018 -2.68033
117 1 7.13816 9.73214 19.0018 -6.02719
118 1 2.92401 2.43304 19.0018 -3.55176
119 1 2.92401 7.2991 19.0018 -2.60494
120 1 1.44259 9.54739 21.0501 -2.71035
121 1 0.13062 2.71423 20.9537 -2.79883
122 1 0 10.7125 23.8576 -3.28759
123 1 0 0.980371 23.812 -3.21636
124 1 5.61888 0.980371 23.812 -3.16125
125 1 5.61888 10.7125 23.8576 -2.99132
126 1 7.0236 8.27947 23.8462 -2.93743
127 1 1.40472 8.27947 23.8462 -3.09494
128 1 4.21416 8.27947 23.8462 -2.94929
129 1 2.80944 0.980371 23.812 -3.18728
130 1 2.80944 10.7125 23.8576 -3.21757
132 1 4.21416 13.1455 23.869 -3.14788
134 1 7.0236 13.1455 23.869 -3.07732
136 1 1.40472 13.1455 23.869 -3.24856
248 1 1.05952 5.43736 21.1623 -1.72305
249 2 7.1622 11.4874 19.6661 -2.86757
250 2 1.31559 11.2472 19.8646 -3.09704
251 2 5.85889 13.8676 20.095 -2.42169
252 2 0.20167 13.7645 19.8457 -3.68223
253 2 4.32872 3.37635 17.5548 -3.32337
254 2 3.03858 5.61093 17.5548 -3.2482
255 2 5.61887 5.61093 17.5548 -3.24819
256 2 4.56575 11.3762 19.5948 -2.05245
257 2 5.63416 8.95538 19.6099 -1.96487
258 2 4.32872 8.24241 17.5548 -3.54467
259 2 3.03858 10.477 17.5548 -3.95853
260 2 5.61887 10.477 17.5548 -4.01068
261 2 1.40472 12.91 17.5548 -3.99743
262 2 7.25273 12.91 17.5548 -3.96215
263 2 0.114574 10.6754 17.5548 -4.17247
264 2 0.397343 9.08656 19.4527 -2.42892
265 2 0.114574 5.80937 17.5548 -3.38374
266 2 1.40472 8.04397 17.5548 -3.48346
267 2 7.25273 8.04397 17.5548 -3.83729
268 2 1.40472 3.1779 17.5548 -3.58823
269 2 7.25273 3.1779 17.5548 -3.47766
270 2 0.114574 0.943306 17.5548 -4.08015
271 2 4.32872 13.1085 17.5548 -3.935
272 2 3.03858 0.744873 17.5548 -3.72466
273 2 5.61887 0.744873 17.5548 -3.8771
274 2 2.91689 13.9232 19.7457 -2.95184
383 2 7.16609 1.65124 19.7352 -3.46974
384 2 1.16036 1.25856 19.8388 -3.30147
7 1 7.0236 5.02485 26.1582 -3.41821
8 1 1.40472 5.02485 26.1582 -3.42049
9 1 5.61888 7.45787 26.1696 -3.43975
10 1 0 7.45787 26.1696 -3.41625
11 1 4.21416 5.02485 26.1582 -3.42927
12 1 2.80944 7.45787 26.1696 -3.42145
13 1 7.0236 9.89091 26.181 -3.40609
14 1 1.40472 9.89091 26.181 -3.39974
15 1 5.61888 12.3239 26.1924 -3.41042
16 1 0 12.3239 26.1924 -3.38346
17 1 4.21416 9.89091 26.181 -3.40762
18 1 2.80944 12.3239 26.1924 -3.38922
131 1 4.21416 0.158785 26.1354 -3.39613
133 1 7.0236 0.158785 26.1354 -3.3812
135 1 1.40472 0.158785 26.1354 -3.36751
137 1 5.61888 2.59181 26.1468 -3.41538
138 1 0 2.59181 26.1468 -3.40548
139 1 2.80944 2.59181 26.1468 -3.40162
140 1 5.61888 5.81468 30.8164 -3.35104
141 1 0 5.81468 30.8164 -3.35104
142 1 7.0236 8.24771 30.8277 -3.35103
143 1 1.40472 8.24771 30.8277 -3.35103
144 1 4.21416 8.24771 30.8277 -3.35103
145 1 2.80944 5.81468 30.8164 -3.35104
146 1 7.0236 1.77021 28.4702 -3.35207
147 1 1.40472 1.77021 28.4702 -3.35207
148 1 4.21416 1.77021 28.4702 -3.35207
149 1 7.0236 6.63627 28.493 -3.35105
150 1 1.40472 6.63627 28.493 -3.35104
151 1 5.61888 4.20324 28.4816 -3.35108
152 1 0 4.20324 28.4816 -3.35108
153 1 4.21416 6.63627 28.493 -3.35104
154 1 2.80944 4.20324 28.4816 -3.35108
155 1 5.61888 9.06931 28.5044 -3.35104
156 1 0 9.06931 28.5044 -3.35104
157 1 7.0236 11.5023 28.5158 -3.35223
158 1 1.40472 11.5023 28.5158 -3.35223
159 1 4.21416 11.5023 28.5158 -3.35223
160 1 2.80944 9.06931 28.5044 -3.35104
161 1 2.80944 0.94862 30.7936 -3.3559
162 1 2.80944 13.9354 28.5271 -3.34153
163 1 0 0.94862 30.7936 -3.3559
164 1 0 13.9354 28.5271 -3.34154
165 1 5.61888 0.94862 30.7936 -3.3559
166 1 5.61888 13.9354 28.5271 -3.34153
167 1 7.0236 3.38164 30.805 -3.34972
168 1 1.40472 3.38164 30.805 -3.34972
169 1 4.21416 3.38164 30.805 -3.34972
180 1 4.21416 13.1138 30.8505 -3.35589
181 1 5.61888 10.6807 30.8392 -3.34972
182 1 0 10.6807 30.8392 -3.34973
184 1 7.0236 13.1138 30.8505 -3.3559
186 1 1.40472 13.1138 30.8505 -3.35589
187 1 2.80944 10.6807 30.8392 -3.34972
170 1 5.61888 7.42612 33.1512 -3.35104
171 1 0 7.42612 33.1512 -3.35104
172 1 7.0236 9.85914 33.1626 -3.35108
173 1 1.40472 9.85914 33.1626 -3.35108
174 1 4.21416 9.85914 33.1626 -3.35108
175 1 2.80944 7.42612 33.1512 -3.35104
176 1 5.61888 12.2922 33.1739 -3.35206
177 1 0 12.2922 33.1739 -3.35206
178 1 2.80944 12.2922 33.1739 -3.35206
179 1 4.21416 0.127019 33.117 -3.34154
183 1 7.0236 0.127019 33.117 -3.34154
185 1 1.40472 0.127019 33.117 -3.34154
188 1 5.61888 2.56006 33.1284 -3.35222
189 1 0 2.56006 33.1284 -3.35222
190 1 7.0236 4.99308 33.1397 -3.35105
191 1 1.40472 4.99308 33.1397 -3.35104
192 1 4.21416 4.99308 33.1397 -3.35104
193 1 2.80944 2.56006 33.1284 -3.35222
194 1 5.61888 12.2604 40.1555 -2.97112
195 1 0 12.2604 40.1555 -2.97112
196 1 2.80944 12.2604 40.1555 -2.97111
197 1 7.0236 9.82739 40.1441 -2.97446
198 1 1.40472 9.82739 40.1441 -2.97446
199 1 4.21416 9.82739 40.1441 -2.97446
200 1 5.61888 5.78293 37.7979 -3.43976
201 1 0 5.78293 37.7979 -3.43976
202 1 7.0236 8.21595 37.8093 -3.43975
203 1 1.40472 8.21595 37.8093 -3.43975
204 1 4.21416 8.21595 37.8093 -3.43975
205 1 2.80944 5.78293 37.7979 -3.43976
206 1 4.21416 0.095268 40.0985 -2.9788
207 1 4.21416 13.082 37.8321 -3.44396
208 1 5.61888 2.52829 40.11 -2.97213
209 1 0 2.52829 40.11 -2.97213
210 1 5.61888 10.649 37.8207 -3.43844
211 1 0 10.649 37.8207 -3.43844
212 1 7.0236 0.095268 40.0985 -2.97881
213 1 7.0236 13.082 37.8321 -3.44396
214 1 1.40472 0.095268 40.0985 -2.97881
215 1 1.40472 13.082 37.8321 -3.44396
216 1 2.80944 2.52829 40.11 -2.97213
217 1 2.80944 10.649 37.8207 -3.43844
218 1 7.0236 4.96133 40.1213 -2.97443
219 1 1.40472 4.96133 40.1213 -2.97443
220 1 5.61888 7.39435 40.1327 -2.97441
221 1 0 7.39435 40.1327 -2.97442
222 1 4.21416 4.96133 40.1213 -2.97442
223 1 2.80944 7.39435 40.1327 -2.97441
224 1 5.61888 9.03756 35.4859 -3.35104
225 1 0 9.03756 35.4859 -3.35105
226 1 7.0236 11.4706 35.4973 -3.35223
227 1 1.40472 11.4706 35.4973 -3.35223
228 1 4.21416 11.4706 35.4973 -3.35223
229 1 2.80944 9.03756 35.4859 -3.35104
230 1 2.80944 0.916869 37.7751 -3.4418
231 1 2.80944 13.9036 35.5087 -3.34154
232 1 0 0.916869 37.7751 -3.44181
233 1 0 13.9036 35.5087 -3.34155
234 1 5.61888 0.916869 37.7751 -3.4418
235 1 5.61888 13.9036 35.5087 -3.34154
236 1 7.0236 3.34989 37.7865 -3.43844
237 1 1.40472 3.34989 37.7865 -3.43843
238 1 4.21416 3.34989 37.7865 -3.43843
239 1 7.0236 1.73846 35.4518 -3.35208
240 1 1.40472 1.73846 35.4518 -3.35207
241 1 4.21416 1.73846 35.4518 -3.35207
242 1 7.0236 6.60452 35.4745 -3.35104
243 1 1.40472 6.60452 35.4745 -3.35104
244 1 5.61888 4.17149 35.4632 -3.35108
245 1 0 4.17149 35.4632 -3.35108
246 1 4.21416 6.60452 35.4745 -3.35104
247 1 2.80944 4.17149 35.4632 -3.35108
