ITEM: TIMESTEP
106
ITEM: NUMBER OF ATOMS
18
ITEM: BOX BOUNDS ff ff ff
0.0000000000000000e+00 1.8000000000000000e+01
0.0000000000000000e+00 1.8000000000000000e+01
0.0000000000000000e+00 1.8000000000000000e+01
ITEM: ATOMS id type x y z c_peatom 
6 1 5.83688 7.46421 7.90475 -3.97088 
2 1 8.56749 8.02817 6.56474 -4.69917 
15 2 7.16474 8.77393 7.63915 -4.23649 
11 2 9.05815 6.83791 7.77268 -3.57988 
7 1 8.20123 10.5946 8.54596 -5.73262 
5 1 11.3663 9.89072 8.6463 -8.02216 
13 2 11.8804 10.0776 7.02466 -2.65104 
16 2 9.39542 9.18721 7.98609 -3.81098 
18 2 9.15317 12.3219 8.39065 -3.48187 
14 2 6.63028 6.81237 9.32571 -3.91721 
3 1 8.26125 7.84688 9.30727 -7.16799 
10 2 9.07733 8.00125 11.0869 -3.52223 
4 1 8.55584 9.69146 11.419 -4.79687 
8 2 7.32432 9.5362 9.98162 -3.85414 
9 2 11.712 11.7282 9.07595 -3.32473 
17 2 9.62569 10.359 9.94527 -4.17462 
12 2 12.7353 9.07808 9.29457 -2.62484 
1 1 10.1384 12.2221 9.89721 -5.12343 
