ITEM: TIMESTEP
292
ITEM: NUMBER OF ATOMS
18
ITEM: BOX BOUNDS ff ff ff
0.0000000000000000e+00 1.8000000000000000e+01
0.0000000000000000e+00 1.8000000000000000e+01
0.0000000000000000e+00 1.8000000000000000e+01
ITEM: ATOMS id type x y z c_peatom
1 1 8.64826 7.28479 8.22215 -5.87104
2 1 6.07652 8.5808 8.354 -5.14682
8 2 6.75234 6.8849 8.42259 -3.48569
3 1 11.7143 8.2723 7.96478 -7.00112
9 2 11.3557 7.69881 6.3973 -2.78666
10 2 10.6153 6.62746 8.64203 -3.44109
11 2 7.96675 9.12796 8.14057 -4.12099
12 2 11.4547 10.0601 7.3841 -3.3622
4 1 9.6797 10.3962 7.89206 -5.12465
13 2 8.57931 7.37424 10.1054 -3.91484
17 2 6.26971 8.88925 10.1279 -3.46408
5 1 10.5374 7.16975 10.4999 -5.80998
14 2 9.77973 8.83335 11.4258 -3.87859
15 2 10.0424 8.8068 9.05475 -4.27993
16 2 12.0136 8.36617 10.1417 -3.57946
6 1 8.19705 9.32173 10.1637 -6.43626
7 1 10.9799 9.97428 10.6256 -5.12849
18 2 9.48323 10.9293 9.72357 -3.77848
