ITEM: TIMESTEP
66
ITEM: NUMBER OF ATOMS
382
ITEM: BOX BOUNDS pp pp pp
0.0000000000000000e+00 8.4283000000000001e+00
0.0000000000000000e+00 1.4598200000000000e+01
0.0000000000000000e+00 4.9476269000000002e+01
ITEM: ATOMS id type x y z c_peatom
72 1 2.92401 12.1652 3.61953 -2.2941
73 1 7.13816 4.86606 3.61953 -2.29409
74 1 5.73344 7.2991 5.31004 -6.5982
75 1 7.13816 9.73214 3.61953 -2.29409
76 1 5.73344 12.1652 5.31004 -6.5982
77 1 7.13816 0 3.61953 -2.29408
78 1 5.73344 2.43304 5.31004 -6.5982
79 1 2.92401 7.2991 3.61953 -2.29408
80 1 1.51929 9.73212 5.31004 -6.59819
81 1 2.92401 2.43304 3.61953 -2.29408
82 1 1.51929 4.86606 5.31004 -6.5982
83 1 1.51929 0 5.31004 -6.59819
84 1 0.114574 7.2991 5.80124 -6.54405
85 1 4.32872 9.73212 5.80124 -6.54404
86 1 2.92401 7.2991 7.4917 -6.40207
87 1 0.114574 12.1652 5.80124 -6.54405
88 1 7.13816 9.73214 7.4917 -6.40206
89 1 4.32872 0 5.80124 -6.54405
90 1 2.92401 12.1652 7.4917 -6.40208
91 1 0.114574 2.43304 5.80124 -6.54404
92 1 7.13816 0 7.4917 -6.40207
93 1 4.32872 4.86606 5.80124 -6.54403
94 1 2.92401 2.43304 7.4917 -6.40207
95 1 7.13816 4.86606 7.4917 -6.40206
96 1 5.73344 12.1652 7.98285 -6.40205
99 1 5.73344 7.2991 7.98285 -6.40204
100 1 1.51929 9.73212 7.98285 -6.40204
103 1 5.73344 2.43304 7.98285 -6.40204
104 1 1.51929 4.86606 7.98285 -6.40204
106 1 1.51929 0 7.98285 -6.40204
108 1 4.32872 9.73212 3.12833 -3.27315
109 1 4.32872 4.86606 3.12833 -3.27316
110 1 0.114574 12.1652 3.12833 -3.27315
111 1 0.114574 2.43304 3.12833 -3.27315
112 1 0.114574 7.2991 3.12833 -3.27315
113 1 4.32872 0 3.12833 -3.27314
322 2 3.03858 10.477 4.46474 -3.32409
323 2 1.40472 12.91 4.46474 -3.32409
324 2 4.32872 13.1085 4.46474 -3.32408
325 2 7.25273 3.1779 4.46474 -3.32408
326 2 0.114574 5.80937 4.46474 -3.32409
327 2 5.61887 5.61093 4.46474 -3.32408
328 2 0.114574 10.6754 4.46474 -3.32409
329 2 5.61887 10.477 4.46474 -3.32408
330 2 7.25273 8.04396 4.46474 -3.32409
331 2 0.114574 0.943306 4.46474 -3.32409
332 2 5.61887 0.744873 4.46474 -3.32408
333 2 7.25273 12.91 4.46474 -3.32408
334 2 1.40472 8.04396 4.46474 -3.32407
335 2 4.32872 8.24241 4.46474 -3.32408
336 2 3.03858 5.61092 4.46474 -3.32409
337 2 1.40472 3.1779 4.46474 -3.32408
338 2 4.32872 3.37635 4.46474 -3.32409
339 2 3.03858 0.744859 4.46474 -3.32408
340 2 0.22914 8.98727 6.64644 -4.12705
341 2 7.02359 6.55424 6.64644 -4.12705
342 2 1.51929 6.35579 6.64644 -4.12705
343 2 5.73344 8.78883 6.64644 -4.12705
344 2 2.80944 8.98727 6.64644 -4.12704
345 2 4.44329 11.4203 6.64644 -4.12706
346 2 0.22914 13.8533 6.64644 -4.12706
347 2 7.02359 11.4203 6.64644 -4.12704
348 2 1.51929 11.2219 6.64644 -4.12706
349 2 4.44329 1.68816 6.64644 -4.12706
350 2 5.73344 13.6549 6.64644 -4.12705
351 2 2.80944 13.8533 6.64644 -4.12705
352 2 0.22914 4.1212 6.64644 -4.12705
353 2 1.51929 1.48973 6.64644 -4.12705
354 2 7.02359 1.68816 6.64644 -4.12705
355 2 2.80944 4.1212 6.64644 -4.12704
356 2 5.73344 3.92275 6.64644 -4.12704
357 2 4.44329 6.55424 6.64644 -4.12706
36 1 5.73344 2.43304 14.5279 -6.40189
37 1 4.32872 4.86606 16.2184 -6.41617
38 1 5.73344 12.1652 14.5279 -6.40145
39 1 5.73344 7.2991 14.5279 -6.40126
40 1 4.32872 9.73212 16.2184 -6.38306
41 1 1.51928 4.86606 14.5279 -6.40124
42 1 0.114574 2.43304 16.2184 -6.38662
43 1 1.51928 0 14.5279 -6.40151
44 1 0.114574 12.1652 16.2184 -6.37383
45 1 1.51928 9.73212 14.5279 -6.40124
46 1 0.114574 7.2991 16.2184 -6.4049
47 1 4.32872 0 16.2184 -6.3463
48 1 2.92401 12.1652 10.1646 -6.40196
49 1 2.92401 7.2991 10.1646 -6.40195
50 1 1.51929 9.73212 11.855 -6.4021
51 1 7.13816 4.86606 10.1646 -6.40194
52 1 5.73344 2.43304 11.855 -6.40212
53 1 7.13816 0 10.1646 -6.40195
54 1 5.73344 12.1652 11.855 -6.40212
55 1 7.13816 9.73214 10.1646 -6.40194
56 1 5.73344 7.2991 11.855 -6.40212
57 1 2.92401 2.43304 10.1646 -6.40195
58 1 1.51929 0 11.855 -6.40212
59 1 1.51929 4.86606 11.855 -6.4021
60 1 4.32872 0 12.3462 -6.40196
61 1 2.92401 2.43304 14.0367 -6.38416
62 1 7.13816 0 14.0367 -6.38681
63 1 0.114574 7.2991 12.3462 -6.40197
64 1 0.114574 2.43304 12.3462 -6.40196
65 1 7.13816 4.86606 14.0367 -6.38415
66 1 4.32872 4.86606 12.3462 -6.40196
67 1 2.92401 7.2991 14.0367 -6.38417
68 1 0.114574 12.1652 12.3462 -6.40197
69 1 4.32872 9.73212 12.3462 -6.40196
70 1 7.13816 9.73214 14.0367 -6.38415
71 1 2.92401 12.1652 14.0367 -6.38418
97 1 0.114574 12.1652 9.67335 -6.40208
98 1 4.32872 9.73212 9.67335 -6.40207
101 1 0.114574 7.2991 9.67335 -6.40207
102 1 4.32872 4.86606 9.67335 -6.40207
105 1 0.114574 2.43304 9.67335 -6.40207
107 1 4.32872 0 9.67335 -6.40207
268 2 5.84801 4.1212 15.3731 -4.12743
269 2 7.13816 1.48973 15.3731 -4.12743
270 2 4.21415 1.68818 15.3731 -4.12744
271 2 5.84801 13.8533 15.3731 -4.12743
272 2 7.13816 11.2219 15.3731 -4.12743
273 2 4.21415 11.4203 15.3731 -4.12745
274 2 5.84801 8.98727 15.3731 -4.12743
275 2 7.13816 6.35579 15.3731 -4.12744
276 2 4.21415 6.55424 15.3731 -4.12745
277 2 0 4.1212 15.3731 -4.12742
278 2 2.92401 3.92275 15.3731 -4.12744
279 2 1.63386 6.55424 15.3731 -4.12744
280 2 1.63386 1.68816 15.3731 -4.12743
281 2 0 13.8533 15.3731 -4.12744
282 2 2.92401 13.6549 15.3731 -4.12745
283 2 0 8.98727 15.3731 -4.12744
284 2 2.92401 8.78882 15.3731 -4.12744
285 2 1.63386 11.4203 15.3731 -4.12744
286 2 3.03858 13.8533 11.0098 -4.12708
287 2 1.40472 11.4203 11.0098 -4.12708
288 2 4.32872 11.2219 11.0098 -4.12709
289 2 3.03858 8.98727 11.0098 -4.12707
290 2 1.40472 6.55424 11.0098 -4.12709
291 2 4.32872 6.35579 11.0098 -4.12709
292 2 5.61887 4.1212 11.0098 -4.12707
293 2 0.114574 3.92275 11.0098 -4.12708
294 2 7.25273 6.55424 11.0098 -4.12709
295 2 0.114574 13.6549 11.0098 -4.12709
296 2 5.61887 13.8533 11.0098 -4.12707
297 2 7.25273 1.68818 11.0098 -4.12709
298 2 7.25273 11.4203 11.0098 -4.12707
299 2 5.61887 8.98727 11.0098 -4.12708
300 2 0.114574 8.78882 11.0098 -4.12709
301 2 3.03858 4.1212 11.0098 -4.12707
302 2 4.32872 1.48973 11.0098 -4.12708
303 2 1.40472 1.68816 11.0098 -4.12708
304 2 5.73344 0.943306 13.1914 -4.12709
305 2 2.80944 0.744873 13.1914 -4.12708
306 2 4.44329 12.91 13.1914 -4.1271
307 2 0.22914 5.61093 13.1914 -4.12709
308 2 7.02359 8.04396 13.1914 -4.12709
309 2 1.51929 8.24241 13.1914 -4.12708
310 2 0.22914 0.744873 13.1914 -4.12709
311 2 7.02359 3.1779 13.1914 -4.12708
312 2 1.51929 3.37635 13.1914 -4.12708
313 2 4.44329 3.1779 13.1914 -4.12709
314 2 5.73344 5.80937 13.1914 -4.1271
315 2 2.80944 5.61093 13.1914 -4.12709
316 2 0.22914 10.477 13.1914 -4.12709
317 2 7.02359 12.91 13.1914 -4.12709
318 2 1.51929 13.1085 13.1914 -4.12709
319 2 4.44329 8.04396 13.1914 -4.12709
320 2 5.73344 10.6754 13.1914 -4.12709
321 2 2.80944 10.477 13.1914 -4.12709
358 2 5.84801 10.477 8.8281 -4.12712
359 2 7.13816 13.1085 8.8281 -4.12713
360 2 0 10.477 8.8281 -4.12713
361 2 1.63386 12.91 8.8281 -4.12713
362 2 4.21415 8.04396 8.8281 -4.12713
363 2 5.84801 5.61093 8.8281 -4.12712
364 2 7.13816 8.24241 8.8281 -4.12713
365 2 1.63386 8.04396 8.8281 -4.12711
366 2 2.92401 10.6754 8.8281 -4.12713
367 2 4.21415 3.1779 8.8281 -4.12712
368 2 5.84801 0.744873 8.8281 -4.12712
369 2 7.13816 3.37635 8.8281 -4.12712
370 2 1.63386 3.1779 8.8281 -4.12711
371 2 2.92401 5.80937 8.8281 -4.12713
372 2 2.92401 0.943306 8.8281 -4.12713
373 2 4.21415 12.91 8.8281 -4.12713
374 2 0 0.744859 8.8281 -4.12713
375 2 0 5.61092 8.8281 -4.12714
1 1 5.61888 0.980371 23.812 -3.08854
2 1 0 0.980371 23.812 -3.23008
3 1 2.80944 0.980371 23.812 -2.95454
16 1 -0.0263269 11.3742 20.7188 -2.70381
17 1 2.32418 10.9548 21.362 -3.36171
18 1 7.09719 0.10212 19.1425 -2.94871
19 1 7.84342 14.1299 21.6597 -2.00385
20 1 2.807 6.62158 21.4422 -3.0797
21 1 2.92401 7.2991 19.0018 -2.77143
22 1 8.95756 5.73011 20.6229 -2.66669
23 1 7.13816 4.86606 19.0018 -4.17132
24 1 4.32872 4.86606 18.5106 -3.16813
25 1 2.92401 7.2991 16.7095 -6.61426
26 1 4.32872 9.73212 18.5106 -3.4597
27 1 2.92401 12.1652 16.7095 -6.3857
28 1 0.114574 12.1652 18.5106 -4.21441
29 1 0.114574 7.2991 18.5106 -3.17974
30 1 7.13816 9.73214 16.7095 -6.61274
31 1 0.114574 2.43304 18.5106 -4.50193
32 1 7.13816 4.86606 16.7095 -6.57106
33 1 4.32872 0 18.5106 -5.4773
34 1 2.92401 2.43304 16.7095 -6.60021
35 1 7.13816 0 16.7095 -6.64355
114 1 2.92401 12.1652 19.0018 -8.34537
115 1 7.13816 9.73214 19.0018 -2.61887
116 1 2.92401 2.43304 19.0018 -2.60739
117 1 5.72956 2.4413 19.659 -1.59161
118 1 5.61888 10.7125 23.8576 -2.92795
119 1 2.80944 5.84643 23.8348 -3.16457
120 1 2.80944 10.7125 23.8576 -3.15528
121 1 0 10.7125 23.8576 -3.12549
122 1 7.0236 8.27947 23.8462 -2.96282
123 1 1.40472 8.27947 23.8462 -3.04379
124 1 4.21416 8.27947 23.8462 -3.05772
125 1 5.61888 5.84643 23.8348 -2.94865
126 1 0 5.84643 23.8348 -3.08794
127 1 7.0236 3.41341 23.8235 -2.95851
128 1 1.40472 3.41341 23.8235 -2.94425
129 1 4.21416 3.41341 23.8235 -2.95728
131 1 4.21416 13.1455 23.869 -2.93946
133 1 7.0236 13.1455 23.869 -3.23583
135 1 1.40472 13.1455 23.869 -3.19236
247 2 1.50727 11.125 19.5406 -3.39627
248 2 2.31623 5.03997 20.414 -1.58149
249 2 0.397869 4.15893 19.4008 -2.61479
250 2 4.32872 3.37635 17.5548 -3.24793
251 2 3.03858 5.61093 17.5548 -3.24794
252 2 5.61887 5.61093 17.5548 -3.24303
253 2 4.32872 8.24241 17.5548 -3.36022
254 2 3.03858 10.477 17.5548 -3.58851
255 2 5.61887 10.477 17.5548 -3.27717
256 2 1.40472 12.91 17.5548 -3.69074
257 2 7.25273 12.91 17.5548 -3.33123
258 2 0.114574 10.6754 17.5548 -3.46185
259 2 0.114574 5.80937 17.5548 -3.49529
260 2 1.40472 8.04397 17.5548 -3.24793
261 2 7.25273 8.04397 17.5548 -3.24812
262 2 1.40472 3.1779 17.5548 -3.48643
263 2 7.25273 3.1779 17.5548 -3.61936
264 2 0.114574 0.943306 17.5548 -3.37164
265 2 4.32872 13.1085 17.5548 -4.06341
266 2 3.03858 0.744873 17.5548 -3.39964
267 2 5.61887 0.744873 17.5548 -3.22815
376 2 2.65862 13.9726 19.1776 -2.56554
377 2 4.11763 11.0879 19.8639 -3.75799
378 2 4.6085 13.0969 19.6296 -1.89781
379 2 6.84622 11.6203 21.6631 -0.806565
380 2 2.5665 12.7423 20.7863 -2.26444
381 2 4.31552 5.47997 21.2549 -0.907998
382 2 4.98608 11.3669 20.7221 -1.99424
4 1 7.0236 5.02485 26.1582 -3.43018
5 1 1.40472 5.02485 26.1582 -3.41371
6 1 5.61888 7.45787 26.1696 -3.43414
7 1 0 7.45787 26.1696 -3.42544
8 1 4.21416 5.02485 26.1582 -3.42003
9 1 2.80944 7.45787 26.1696 -3.4211
10 1 7.0236 9.89091 26.181 -3.4204
11 1 1.40472 9.89091 26.181 -3.4032
12 1 5.61888 12.3239 26.1924 -3.4197
13 1 0 12.3239 26.1924 -3.41287
14 1 4.21416 9.89091 26.181 -3.4096
15 1 2.80944 12.3239 26.1924 -3.41152
130 1 4.21416 0.158785 26.1354 -3.42703
132 1 7.0236 0.158785 26.1354 -3.40807
134 1 1.40472 0.158785 26.1354 -3.40842
136 1 5.61888 2.59181 26.1468 -3.43567
137 1 0 2.59181 26.1468 -3.42321
138 1 2.80944 2.59181 26.1468 -3.44171
139 1 5.61888 5.81468 30.8164 -3.35104
140 1 0 5.81468 30.8164 -3.35104
141 1 7.0236 8.24771 30.8277 -3.35103
142 1 1.40472 8.24771 30.8277 -3.35103
143 1 4.21416 8.24771 30.8277 -3.35103
144 1 2.80944 5.81468 30.8164 -3.35104
145 1 7.0236 1.77021 28.4702 -3.35207
146 1 1.40472 1.77021 28.4702 -3.35207
147 1 4.21416 1.77021 28.4702 -3.35207
148 1 7.0236 6.63627 28.493 -3.35105
149 1 1.40472 6.63627 28.493 -3.35104
150 1 5.61888 4.20324 28.4816 -3.35108
151 1 0 4.20324 28.4816 -3.35108
152 1 4.21416 6.63627 28.493 -3.35104
153 1 2.80944 4.20324 28.4816 -3.35108
154 1 5.61888 9.06931 28.5044 -3.35104
155 1 0 9.06931 28.5044 -3.35104
156 1 7.0236 11.5023 28.5158 -3.35223
157 1 1.40472 11.5023 28.5158 -3.35223
158 1 4.21416 11.5023 28.5158 -3.35223
159 1 2.80944 9.06931 28.5044 -3.35104
160 1 2.80944 0.94862 30.7936 -3.3559
161 1 2.80944 13.9354 28.5271 -3.34153
162 1 0 0.94862 30.7936 -3.3559
163 1 0 13.9354 28.5271 -3.34154
164 1 5.61888 0.94862 30.7936 -3.3559
165 1 5.61888 13.9354 28.5271 -3.34153
166 1 7.0236 3.38164 30.805 -3.34972
167 1 1.40472 3.38164 30.805 -3.34972
168 1 4.21416 3.38164 30.805 -3.34972
179 1 4.21416 13.1138 30.8505 -3.35589
180 1 5.61888 10.6807 30.8392 -3.34972
181 1 0 10.6807 30.8392 -3.34973
183 1 7.0236 13.1138 30.8505 -3.3559
185 1 1.40472 13.1138 30.8505 -3.35589
186 1 2.80944 10.6807 30.8392 -3.34972
169 1 5.61888 7.42612 33.1512 -3.35104
170 1 0 7.42612 33.1512 -3.35104
171 1 7.0236 9.85914 33.1626 -3.35108
172 1 1.40472 9.85914 33.1626 -3.35108
173 1 4.21416 9.85914 33.1626 -3.35108
174 1 2.80944 7.42612 33.1512 -3.35104
175 1 5.61888 12.2922 33.1739 -3.35206
176 1 0 12.2922 33.1739 -3.35206
177 1 2.80944 12.2922 33.1739 -3.35206
178 1 4.21416 0.127019 33.117 -3.34154
182 1 7.0236 0.127019 33.117 -3.34154
184 1 1.40472 0.127019 33.117 -3.34154
187 1 5.61888 2.56006 33.1284 -3.35222
188 1 0 2.56006 33.1284 -3.35222
189 1 7.0236 4.99308 33.1397 -3.35105
190 1 1.40472 4.99308 33.1397 -3.35104
191 1 4.21416 4.99308 33.1397 -3.35104
192 1 2.80944 2.56006 33.1284 -3.35222
193 1 5.61888 12.2604 40.1555 -2.97112
194 1 0 12.2604 40.1555 -2.97112
195 1 2.80944 12.2604 40.1555 -2.97111
196 1 7.0236 9.82739 40.1441 -2.97446
197 1 1.40472 9.82739 40.1441 -2.97446
198 1 4.21416 9.82739 40.1441 -2.97446
199 1 5.61888 5.78293 37.7979 -3.43976
200 1 0 5.78293 37.7979 -3.43976
201 1 7.0236 8.21595 37.8093 -3.43975
202 1 1.40472 8.21595 37.8093 -3.43975
203 1 4.21416 8.21595 37.8093 -3.43975
204 1 2.80944 5.78293 37.7979 -3.43976
205 1 4.21416 0.095268 40.0985 -2.9788
206 1 4.21416 13.082 37.8321 -3.44396
207 1 5.61888 2.52829 40.11 -2.97213
208 1 0 2.52829 40.11 -2.97213
209 1 5.61888 10.649 37.8207 -3.43844
210 1 0 10.649 37.8207 -3.43844
211 1 7.0236 0.095268 40.0985 -2.97881
212 1 7.0236 13.082 37.8321 -3.44396
213 1 1.40472 0.095268 40.0985 -2.97881
214 1 1.40472 13.082 37.8321 -3.44396
215 1 2.80944 2.52829 40.11 -2.97213
216 1 2.80944 10.649 37.8207 -3.43844
217 1 7.0236 4.96133 40.1213 -2.97443
218 1 1.40472 4.96133 40.1213 -2.97443
219 1 5.61888 7.39435 40.1327 -2.97441
220 1 0 7.39435 40.1327 -2.97442
221 1 4.21416 4.96133 40.1213 -2.97442
222 1 2.80944 7.39435 40.1327 -2.97441
223 1 5.61888 9.03756 35.4859 -3.35104
224 1 0 9.03756 35.4859 -3.35105
225 1 7.0236 11.4706 35.4973 -3.35223
226 1 1.40472 11.4706 35.4973 -3.35223
227 1 4.21416 11.4706 35.4973 -3.35223
228 1 2.80944 9.03756 35.4859 -3.35104
229 1 2.80944 0.916869 37.7751 -3.4418
230 1 2.80944 13.9036 35.5087 -3.34154
231 1 0 0.916869 37.7751 -3.44181
232 1 0 13.9036 35.5087 -3.34155
233 1 5.61888 0.916869 37.7751 -3.4418
234 1 5.61888 13.9036 35.5087 -3.34154
235 1 7.0236 3.34989 37.7865 -3.43844
236 1 1.40472 3.34989 37.7865 -3.43843
237 1 4.21416 3.34989 37.7865 -3.43843
238 1 7.0236 1.73846 35.4518 -3.35208
239 1 1.40472 1.73846 35.4518 -3.35207
240 1 4.21416 1.73846 35.4518 -3.35207
241 1 7.0236 6.60452 35.4745 -3.35104
242 1 1.40472 6.60452 35.4745 -3.35104
243 1 5.61888 4.17149 35.4632 -3.35108
244 1 0 4.17149 35.4632 -3.35108
245 1 4.21416 6.60452 35.4745 -3.35104
246 1 2.80944 4.17149 35.4632 -3.35108
