ITEM: TIMESTEP
611
ITEM: NUMBER OF ATOMS
18
ITEM: BOX BOUNDS ff ff ff
0.0000000000000000e+00 1.8000000000000000e+01
0.0000000000000000e+00 1.8000000000000000e+01
0.0000000000000000e+00 1.8000000000000000e+01
ITEM: ATOMS id type x y z c_peatom 
8 2 10.7219 5.81968 8.52393 -3.79992 
1 1 8.66211 6.36356 8.55446 -6.20105 
9 2 7.27574 7.63616 8.10163 -3.25929 
3 1 11.1966 7.54691 7.62888 -6.1693 
10 2 9.39415 7.50389 7.22024 -3.42681 
2 1 8.63703 11.5739 8.90044 -6.07709 
12 2 8.74764 9.6482 8.58687 -3.79001 
11 2 9.67349 11.9039 7.62477 -2.99614 
16 2 10.9409 9.41926 7.9369 -3.20565 
5 1 8.78781 7.30623 11.5338 -4.46976 
18 2 7.48571 6.90909 10.2718 -3.85309 
6 1 7.33461 8.77313 9.61868 -5.89624 
4 1 11.259 6.41075 10.2031 -4.47755 
14 2 11.9082 7.97643 9.44298 -3.76622 
15 2 9.66146 7.47303 9.78764 -4.55663 
17 2 8.666 9.09952 11.0723 -3.79621 
7 1 10.3276 9.41031 9.74171 -6.92978 
13 2 10.015 11.3086 10.0913 -3.24122 
