ITEM: TIMESTEP
194
ITEM: NUMBER OF ATOMS
18
ITEM: BOX BOUNDS ff ff ff
0.0000000000000000e+00 1.8000000000000000e+01
0.0000000000000000e+00 1.8000000000000000e+01
0.0000000000000000e+00 1.8000000000000000e+01
ITEM: ATOMS id type x y z c_peatom
1 1 6.12921 8.89765 8.41216 -5.1893
2 1 8.67034 7.47622 8.09886 -6.50785
8 2 6.70198 7.18314 8.26887 -3.3958
3 1 11.6223 8.04345 7.8585 -5.80851
9 2 10.4961 6.58913 8.63676 -3.58635
12 2 9.99317 8.46705 6.76559 -3.5489
11 2 8.01369 9.38468 8.19618 -4.10105
13 2 11.6925 10.0694 8.02963 -3.77504
4 1 9.82124 10.3137 7.54626 -5.59641
14 2 8.55186 7.46916 10.1044 -3.67041
5 1 10.5234 7.34113 10.4897 -5.83763
10 2 10.0642 8.80386 9.02615 -4.476
15 2 12.15 8.27954 9.80664 -3.6638
6 1 8.3933 9.47054 10.179 -6.50785
16 2 6.44574 9.02782 10.1929 -3.39581
17 2 10.1426 9.13362 11.2907 -3.58634
7 1 11.333 10.1265 10.0312 -5.80852
18 2 9.6392 11.0152 9.4234 -3.54891
