Generated by pymatgen.io.lammps.data.LammpsData

383  atoms

  2  atom types

0.000000 8.428300  xlo xhi
0.000000 14.598200  ylo yhi
0.000000 49.476269  zlo zhi

Masses

1  26.981539
2  15.999400

Atoms

1    1 0.0000 5.618878  0.980371 23.812038
2    1 0.0000 0.000000  0.980371 23.812038
3    1 0.0000 2.809439  0.980371 23.812038
4    1 0.0000 5.618878  5.846433 23.834797
5    1 0.0000 0.000000  5.846433 23.834797
6    1 0.0000 7.023597  3.413410 23.823467
7    1 0.0000 1.404719  3.413410 23.823467
8    1 0.0000 4.214158  3.413410 23.823467
9    1 0.0000 2.809439  5.846433 23.834797
10   1 0.0000 7.023597  5.024846 26.158202
11   1 0.0000 1.404719  5.024846 26.158202
12   1 0.0000 5.618878  7.457870 26.169631
13   1 0.0000 0.000000  7.457870 26.169631
14   1 0.0000 4.214158  5.024846 26.158202
15   1 0.0000 2.809439  7.457870 26.169631
16   1 0.0000 7.023597  9.890908 26.180961
17   1 0.0000 1.404719  9.890908 26.180961
18   1 0.0000 5.618878 12.323932 26.192390
19   1 0.0000 0.000000 12.323932 26.192390
20   1 0.0000 4.214158  9.890908 26.180961
21   1 0.0000 2.809439 12.323932 26.192390
22   1 0.0000 7.023597  8.279471 23.846226
23   1 0.0000 1.404719  8.279471 23.846226
24   1 0.0000 5.618878 10.712495 23.857605
25   1 0.0000 0.000000 10.712495 23.857605
26   1 0.0000 4.214158  8.279471 23.846226
27   1 0.0000 2.809439 10.712495 23.857605
28   1 0.0000 4.214158  0.158785 26.135394
29   1 0.0000 4.214158 13.145533 23.868985
30   1 0.0000 7.023597  0.158785 26.135394
31   1 0.0000 7.023597 13.145533 23.868985
32   1 0.0000 1.404719  0.158785 26.135394
33   1 0.0000 1.404719 13.145533 23.868985
34   1 0.0000 5.618878  2.591808 26.146823
35   1 0.0000 0.000000  2.591808 26.146823
36   1 0.0000 2.809439  2.591808 26.146823
37   1 0.0000 5.618878  5.814682 30.816393
38   1 0.0000 0.000000  5.814682 30.816393
39   1 0.0000 7.023597  8.247706 30.827723
40   1 0.0000 1.404719  8.247706 30.827723
41   1 0.0000 4.214158  8.247706 30.827723
42   1 0.0000 2.809439  5.814682 30.816393
43   1 0.0000 7.023597  1.770207 28.470228
44   1 0.0000 1.404719  1.770207 28.470228
45   1 0.0000 4.214158  1.770207 28.470228
46   1 0.0000 7.023597  6.636269 28.492988
47   1 0.0000 1.404719  6.636269 28.492988
48   1 0.0000 5.618878  4.203245 28.481558
49   1 0.0000 0.000000  4.203245 28.481558
50   1 0.0000 4.214158  6.636269 28.492988
51   1 0.0000 2.809439  4.203245 28.481558
52   1 0.0000 5.618878  9.069307 28.504367
53   1 0.0000 0.000000  9.069307 28.504367
54   1 0.0000 7.023597 11.502331 28.515796
55   1 0.0000 1.404719 11.502331 28.515796
56   1 0.0000 4.214158 11.502331 28.515796
57   1 0.0000 2.809439  9.069307 28.504367
58   1 0.0000 2.809439  0.948620 30.793585
59   1 0.0000 2.809439 13.935369 28.527126
60   1 0.0000 0.000000  0.948620 30.793585
61   1 0.0000 0.000000 13.935369 28.527126
62   1 0.0000 5.618878  0.948620 30.793585
63   1 0.0000 5.618878 13.935369 28.527126
64   1 0.0000 7.023597  3.381644 30.804964
65   1 0.0000 1.404719  3.381644 30.804964
66   1 0.0000 4.214158  3.381644 30.804964
67   1 0.0000 5.618878  7.426119 33.151178
68   1 0.0000 0.000000  7.426119 33.151178
69   1 0.0000 7.023597  9.859143 33.162558
70   1 0.0000 1.404719  9.859143 33.162558
71   1 0.0000 4.214158  9.859143 33.162558
72   1 0.0000 2.809439  7.426119 33.151178
73   1 0.0000 5.618878 12.292181 33.173937
74   1 0.0000 0.000000 12.292181 33.173937
75   1 0.0000 2.809439 12.292181 33.173937
76   1 0.0000 4.214158  0.127019 33.116990
77   1 0.0000 4.214158 13.113767 30.850532
78   1 0.0000 5.618878 10.680744 30.839152
79   1 0.0000 0.000000 10.680744 30.839152
80   1 0.0000 7.023597  0.127019 33.116990
81   1 0.0000 7.023597 13.113767 30.850532
82   1 0.0000 1.404719  0.127019 33.116990
83   1 0.0000 1.404719 13.113767 30.850532
84   1 0.0000 2.809439 10.680744 30.839152
85   1 0.0000 5.618878  2.560057 33.128370
86   1 0.0000 0.000000  2.560057 33.128370
87   1 0.0000 7.023597  4.993081 33.139749
88   1 0.0000 1.404719  4.993081 33.139749
89   1 0.0000 4.214158  4.993081 33.139749
90   1 0.0000 2.809439  2.560057 33.128370
91   1 0.0000 5.618878 12.260430 40.155534
92   1 0.0000 0.000000 12.260430 40.155534
93   1 0.0000 2.809439 12.260430 40.155534
94   1 0.0000 7.023597  9.827391 40.144105
95   1 0.0000 1.404719  9.827391 40.144105
96   1 0.0000 4.214158  9.827391 40.144105
97   1 0.0000 5.618878  5.782931 37.797940
98   1 0.0000 0.000000  5.782931 37.797940
99   1 0.0000 7.023597  8.215955 37.809319
100  1 0.0000 1.404719  8.215955 37.809319
101  1 0.0000 4.214158  8.215955 37.809319
102  1 0.0000 2.809439  5.782931 37.797940
103  1 0.0000 4.214158  0.095268 40.098537
104  1 0.0000 4.214158 13.082016 37.832079
105  1 0.0000 5.618878  2.528291 40.109966
106  1 0.0000 0.000000  2.528291 40.109966
107  1 0.0000 5.618878 10.648993 37.820699
108  1 0.0000 0.000000 10.648993 37.820699
109  1 0.0000 7.023597  0.095268 40.098537
110  1 0.0000 7.023597 13.082016 37.832079
111  1 0.0000 1.404719  0.095268 40.098537
112  1 0.0000 1.404719 13.082016 37.832079
113  1 0.0000 2.809439  2.528291 40.109966
114  1 0.0000 2.809439 10.648993 37.820699
115  1 0.0000 7.023597  4.961330 40.121296
116  1 0.0000 1.404719  4.961330 40.121296
117  1 0.0000 5.618878  7.394353 40.132725
118  1 0.0000 0.000000  7.394353 40.132725
119  1 0.0000 4.214158  4.961330 40.121296
120  1 0.0000 2.809439  7.394353 40.132725
121  1 0.0000 5.618878  9.037556 35.485914
122  1 0.0000 0.000000  9.037556 35.485914
123  1 0.0000 7.023597 11.470579 35.497343
124  1 0.0000 1.404719 11.470579 35.497343
125  1 0.0000 4.214158 11.470579 35.497343
126  1 0.0000 2.809439  9.037556 35.485914
127  1 0.0000 2.809439  0.916869 37.775131
128  1 0.0000 2.809439 13.903618 35.508722
129  1 0.0000 0.000000  0.916869 37.775131
130  1 0.0000 0.000000 13.903618 35.508722
131  1 0.0000 5.618878  0.916869 37.775131
132  1 0.0000 5.618878 13.903618 35.508722
133  1 0.0000 7.023597  3.349893 37.786511
134  1 0.0000 1.404719  3.349893 37.786511
135  1 0.0000 4.214158  3.349893 37.786511
136  1 0.0000 7.023597  1.738456 35.451775
137  1 0.0000 1.404719  1.738456 35.451775
138  1 0.0000 4.214158  1.738456 35.451775
139  1 0.0000 7.023597  6.604518 35.474534
140  1 0.0000 1.404719  6.604518 35.474534
141  1 0.0000 5.618878  4.171494 35.463155
142  1 0.0000 0.000000  4.171494 35.463155
143  1 0.0000 4.214158  6.604518 35.474534
144  1 0.0000 2.809439  4.171494 35.463155
145  1 0.0000 6.638180  8.045480 20.847713
146  1 0.0000 4.184980  9.884750 20.830622
147  1 0.0000 5.285860 10.488700 20.789240
148  1 0.0000 1.551610  9.976090 20.954476
149  1 0.0000 2.924005 12.165162 19.001806
150  1 0.0000 5.360690  5.808110 20.802840
151  1 0.0000 2.777710  5.135620 21.023640
152  1 0.0000 2.924005  7.299100 19.001806
153  1 0.0000 4.328724  4.866062 18.510606
154  1 0.0000 2.924005  7.299100 16.709521
155  1 0.0000 4.328724  9.732124 18.510606
156  1 0.0000 2.924005 12.165162 16.709521
157  1 0.0000 0.114574 12.165162 18.510606
158  1 0.0000 0.114574  7.299100 18.510606
159  1 0.0000 7.138155  9.732138 16.709521
160  1 0.0000 0.114574  2.433038 18.510606
161  1 0.0000 7.138155  4.866062 16.709521
162  1 0.0000 4.328724  0.000000 18.510606
163  1 0.0000 2.924005  2.433038 16.709521
164  1 0.0000 7.138155  0.000000 16.709521
165  1 0.0000 5.733444  2.433038 14.527915
166  1 0.0000 4.328724  4.866062 16.218370
167  1 0.0000 5.733444 12.165162 14.527915
168  1 0.0000 5.733444  7.299100 14.527915
169  1 0.0000 4.328724  9.732124 16.218370
170  1 0.0000 1.519285  4.866062 14.527915
171  1 0.0000 0.114574  2.433038 16.218370
172  1 0.0000 1.519285  0.000000 14.527915
173  1 0.0000 0.114574 12.165162 16.218370
174  1 0.0000 1.519285  9.732124 14.527915
175  1 0.0000 0.114574  7.299100 16.218370
176  1 0.0000 4.328724  0.000000 16.218370
177  1 0.0000 2.924005 12.165162 10.164553
178  1 0.0000 2.924005  7.299100 10.164553
179  1 0.0000 1.519294  9.732124 11.855009
180  1 0.0000 7.138155  4.866062 10.164553
181  1 0.0000 5.733444  2.433038 11.855009
182  1 0.0000 7.138155  0.000000 10.164553
183  1 0.0000 5.733444 12.165162 11.855009
184  1 0.0000 7.138155  9.732138 10.164553
185  1 0.0000 5.733444  7.299100 11.855009
186  1 0.0000 2.924005  2.433038 10.164553
187  1 0.0000 1.519294  0.000000 11.855009
188  1 0.0000 1.519294  4.866062 11.855009
189  1 0.0000 4.328724  0.000000 12.346209
190  1 0.0000 2.924005  2.433038 14.036714
191  1 0.0000 7.138155  0.000000 14.036714
192  1 0.0000 0.114574  7.299100 12.346209
193  1 0.0000 0.114574  2.433038 12.346209
194  1 0.0000 7.138155  4.866062 14.036714
195  1 0.0000 4.328724  4.866062 12.346209
196  1 0.0000 2.924005  7.299100 14.036714
197  1 0.0000 0.114574 12.165162 12.346209
198  1 0.0000 4.328724  9.732124 12.346209
199  1 0.0000 7.138155  9.732138 14.036714
200  1 0.0000 2.924005 12.165162 14.036714
201  1 0.0000 2.924005 12.165162  3.619535
202  1 0.0000 7.138155  4.866062  3.619535
203  1 0.0000 5.733444  7.299100  5.310041
204  1 0.0000 7.138155  9.732138  3.619535
205  1 0.0000 5.733444 12.165162  5.310041
206  1 0.0000 7.138155  0.000000  3.619535
207  1 0.0000 5.733444  2.433038  5.310041
208  1 0.0000 2.924005  7.299100  3.619535
209  1 0.0000 1.519294  9.732124  5.310041
210  1 0.0000 2.924005  2.433038  3.619535
211  1 0.0000 1.519294  4.866062  5.310041
212  1 0.0000 1.519294  0.000000  5.310041
213  1 0.0000 0.114574  7.299100  5.801241
214  1 0.0000 4.328724  9.732124  5.801241
215  1 0.0000 2.924005  7.299100  7.491697
216  1 0.0000 0.114574 12.165162  5.801241
217  1 0.0000 7.138155  9.732138  7.491697
218  1 0.0000 4.328724  0.000000  5.801241
219  1 0.0000 2.924005 12.165162  7.491697
220  1 0.0000 0.114574  2.433038  5.801241
221  1 0.0000 7.138155  0.000000  7.491697
222  1 0.0000 4.328724  4.866062  5.801241
223  1 0.0000 2.924005  2.433038  7.491697
224  1 0.0000 7.138155  4.866062  7.491697
225  1 0.0000 5.733444 12.165162  7.982848
226  1 0.0000 0.114574 12.165162  9.673353
227  1 0.0000 4.328724  9.732124  9.673353
228  1 0.0000 5.733444  7.299100  7.982848
229  1 0.0000 1.519294  9.732124  7.982848
230  1 0.0000 0.114574  7.299100  9.673353
231  1 0.0000 4.328724  4.866062  9.673353
232  1 0.0000 5.733444  2.433038  7.982848
233  1 0.0000 1.519294  4.866062  7.982848
234  1 0.0000 0.114574  2.433038  9.673353
235  1 0.0000 1.519294  0.000000  7.982848
236  1 0.0000 4.328724  0.000000  9.673353
237  1 0.0000 4.328724  9.732124  3.128335
238  1 0.0000 4.328724  4.866062  3.128335
239  1 0.0000 0.114574 12.165162  3.128335
240  1 0.0000 0.114574  2.433038  3.128335
241  1 0.0000 0.114574  7.299100  3.128335
242  1 0.0000 4.328724  0.000000  3.128335
243  1 0.0000 7.138155  4.866062 19.001806
244  1 0.0000 7.138155  9.732138 19.001806
245  1 0.0000 2.924005  2.433038 19.001806
246  1 0.0000 7.138155  0.000000 19.001806
247  1 0.0000 3.525100  0.235916 21.025386
248  1 0.0000 0.658908  0.583710 20.982767
249  2 0.0000 1.372810 11.491700 20.043640
250  2 0.0000 4.074240  6.140450 20.097895
251  2 0.0000 4.328724  3.376345 17.554774
252  2 0.0000 3.038579  5.610935 17.554774
253  2 0.0000 5.618869  5.610935 17.554774
254  2 0.0000 4.328724  8.242406 17.554774
255  2 0.0000 3.038579 10.476997 17.554774
256  2 0.0000 5.618869 10.476997 17.554774
257  2 0.0000 1.404719 12.910020 17.554774
258  2 0.0000 7.252729 12.910020 17.554774
259  2 0.0000 0.114574 10.675430 17.554774
260  2 0.0000 0.114574  5.809368 17.554774
261  2 0.0000 1.404719  8.043973 17.554774
262  2 0.0000 7.252729  8.043973 17.554774
263  2 0.0000 1.404719  3.177897 17.554774
264  2 0.0000 7.252729  3.177897 17.554774
265  2 0.0000 0.114574  0.943306 17.554774
266  2 0.0000 4.328724 13.108468 17.554774
267  2 0.0000 3.038579  0.744873 17.554774
268  2 0.0000 5.618869  0.744873 17.554774
269  2 0.0000 5.848010  4.121203 15.373118
270  2 0.0000 7.138155  1.489732 15.373118
271  2 0.0000 4.214150  1.688180 15.373118
272  2 0.0000 5.848010 13.853327 15.373118
273  2 0.0000 7.138155 11.221855 15.373118
274  2 0.0000 4.214150 11.420303 15.373118
275  2 0.0000 5.848010  8.987265 15.373118
276  2 0.0000 7.138155  6.355794 15.373118
277  2 0.0000 4.214150  6.554241 15.373118
278  2 0.0000 0.000000  4.121203 15.373118
279  2 0.0000 2.924005  3.922755 15.373118
280  2 0.0000 1.633860  6.554241 15.373118
281  2 0.0000 1.633860  1.688165 15.373118
282  2 0.0000 0.000000 13.853327 15.373118
283  2 0.0000 2.924005 13.654879 15.373118
284  2 0.0000 0.000000  8.987265 15.373118
285  2 0.0000 2.924005  8.788817 15.373118
286  2 0.0000 1.633860 11.420303 15.373118
287  2 0.0000 3.038579 13.853327 11.009756
288  2 0.0000 1.404719 11.420303 11.009756
289  2 0.0000 4.328724 11.221855 11.009756
290  2 0.0000 3.038579  8.987265 11.009756
291  2 0.0000 1.404719  6.554241 11.009756
292  2 0.0000 4.328724  6.355794 11.009756
293  2 0.0000 5.618869  4.121203 11.009756
294  2 0.0000 0.114574  3.922755 11.009756
295  2 0.0000 7.252729  6.554241 11.009756
296  2 0.0000 0.114574 13.654894 11.009756
297  2 0.0000 5.618869 13.853327 11.009756
298  2 0.0000 7.252729  1.688180 11.009756
299  2 0.0000 7.252729 11.420303 11.009756
300  2 0.0000 5.618869  8.987265 11.009756
301  2 0.0000 0.114574  8.788817 11.009756
302  2 0.0000 3.038579  4.121203 11.009756
303  2 0.0000 4.328724  1.489732 11.009756
304  2 0.0000 1.404719  1.688165 11.009756
305  2 0.0000 5.733444  0.943306 13.191412
306  2 0.0000 2.809439  0.744873 13.191412
307  2 0.0000 4.443290 12.910020 13.191412
308  2 0.0000 0.229140  5.610935 13.191412
309  2 0.0000 7.023589  8.043959 13.191412
310  2 0.0000 1.519294  8.242406 13.191412
311  2 0.0000 0.229140  0.744873 13.191412
312  2 0.0000 7.023589  3.177897 13.191412
313  2 0.0000 1.519294  3.376345 13.191412
314  2 0.0000 4.443290  3.177897 13.191412
315  2 0.0000 5.733444  5.809368 13.191412
316  2 0.0000 2.809439  5.610935 13.191412
317  2 0.0000 0.229140 10.476997 13.191412
318  2 0.0000 7.023589 12.910020 13.191412
319  2 0.0000 1.519294 13.108468 13.191412
320  2 0.0000 4.443290  8.043959 13.191412
321  2 0.0000 5.733444 10.675430 13.191412
322  2 0.0000 2.809439 10.476997 13.191412
323  2 0.0000 3.038579 10.476997  4.464739
324  2 0.0000 1.404719 12.910020  4.464739
325  2 0.0000 4.328724 13.108468  4.464739
326  2 0.0000 7.252729  3.177897  4.464739
327  2 0.0000 0.114574  5.809368  4.464739
328  2 0.0000 5.618869  5.610935  4.464739
329  2 0.0000 0.114574 10.675430  4.464739
330  2 0.0000 5.618869 10.476997  4.464739
331  2 0.0000 7.252729  8.043959  4.464739
332  2 0.0000 0.114574  0.943306  4.464739
333  2 0.0000 5.618869  0.744873  4.464739
334  2 0.0000 7.252729 12.910020  4.464739
335  2 0.0000 1.404719  8.043959  4.464739
336  2 0.0000 4.328724  8.242406  4.464739
337  2 0.0000 3.038579  5.610920  4.464739
338  2 0.0000 1.404719  3.177897  4.464739
339  2 0.0000 4.328724  3.376345  4.464739
340  2 0.0000 3.038579  0.744859  4.464739
341  2 0.0000 0.229140  8.987265  6.646444
342  2 0.0000 7.023589  6.554241  6.646444
343  2 0.0000 1.519294  6.355794  6.646444
344  2 0.0000 5.733444  8.788832  6.646444
345  2 0.0000 2.809439  8.987265  6.646444
346  2 0.0000 4.443290 11.420303  6.646444
347  2 0.0000 0.229140 13.853327  6.646444
348  2 0.0000 7.023589 11.420303  6.646444
349  2 0.0000 1.519294 11.221855  6.646444
350  2 0.0000 4.443290  1.688165  6.646444
351  2 0.0000 5.733444 13.654894  6.646444
352  2 0.0000 2.809439 13.853327  6.646444
353  2 0.0000 0.229140  4.121203  6.646444
354  2 0.0000 1.519294  1.489732  6.646444
355  2 0.0000 7.023589  1.688165  6.646444
356  2 0.0000 2.809439  4.121203  6.646444
357  2 0.0000 5.733444  3.922755  6.646444
358  2 0.0000 4.443290  6.554241  6.646444
359  2 0.0000 5.848010 10.476997  8.828100
360  2 0.0000 7.138155 13.108468  8.828100
361  2 0.0000 0.000000 10.476997  8.828100
362  2 0.0000 1.633860 12.910020  8.828100
363  2 0.0000 4.214150  8.043959  8.828100
364  2 0.0000 5.848010  5.610935  8.828100
365  2 0.0000 7.138155  8.242406  8.828100
366  2 0.0000 1.633860  8.043959  8.828100
367  2 0.0000 2.924005 10.675430  8.828100
368  2 0.0000 4.214150  3.177897  8.828100
369  2 0.0000 5.848010  0.744873  8.828100
370  2 0.0000 7.138155  3.376345  8.828100
371  2 0.0000 1.633860  3.177897  8.828100
372  2 0.0000 2.924005  5.809368  8.828100
373  2 0.0000 2.924005  0.943306  8.828100
374  2 0.0000 4.214150 12.910020  8.828100
375  2 0.0000 0.000000  0.744859  8.828100
376  2 0.0000 0.000000  5.610920  8.828100
377  2 0.0000 5.961350  6.254803 21.153009
378  2 0.0000 2.448449  1.293536 19.839870
379  2 0.0000 3.665509  9.262483 19.897974
380  2 0.0000 1.827981  1.115789 21.200019
381  2 0.0000 1.934385  9.066996 20.859675
382  2 0.0000 2.155622  6.638945 20.762181
383  2 0.0000 2.382058  8.192241 20.901149

