ITEM: TIMESTEP
50
ITEM: NUMBER OF ATOMS
383
ITEM: BOX BOUNDS pp pp pp
0.0000000000000000e+00 8.4283000000000001e+00
0.0000000000000000e+00 1.4598200000000000e+01
0.0000000000000000e+00 4.9476269000000002e+01
ITEM: ATOMS id type x y z c_peatom
201 1 2.92401 12.1652 3.61953 -2.2941
202 1 7.13816 4.86606 3.61953 -2.29409
203 1 5.73344 7.2991 5.31004 -6.5982
204 1 7.13816 9.73214 3.61953 -2.29409
205 1 5.73344 12.1652 5.31004 -6.5982
206 1 7.13816 0 3.61953 -2.29408
207 1 5.73344 2.43304 5.31004 -6.5982
208 1 2.92401 7.2991 3.61953 -2.29408
209 1 1.51929 9.73212 5.31004 -6.59819
210 1 2.92401 2.43304 3.61953 -2.29408
211 1 1.51929 4.86606 5.31004 -6.5982
212 1 1.51929 0 5.31004 -6.59819
213 1 0.114574 7.2991 5.80124 -6.54405
214 1 4.32872 9.73212 5.80124 -6.54404
215 1 2.92401 7.2991 7.4917 -6.40207
216 1 0.114574 12.1652 5.80124 -6.54405
217 1 7.13816 9.73214 7.4917 -6.40206
218 1 4.32872 0 5.80124 -6.54405
219 1 2.92401 12.1652 7.4917 -6.40208
220 1 0.114574 2.43304 5.80124 -6.54404
221 1 7.13816 0 7.4917 -6.40207
222 1 4.32872 4.86606 5.80124 -6.54403
223 1 2.92401 2.43304 7.4917 -6.40207
224 1 7.13816 4.86606 7.4917 -6.40206
225 1 5.73344 12.1652 7.98285 -6.40205
228 1 5.73344 7.2991 7.98285 -6.40204
229 1 1.51929 9.73212 7.98285 -6.40204
232 1 5.73344 2.43304 7.98285 -6.40204
233 1 1.51929 4.86606 7.98285 -6.40204
235 1 1.51929 0 7.98285 -6.40204
237 1 4.32872 9.73212 3.12833 -3.27315
238 1 4.32872 4.86606 3.12833 -3.27316
239 1 0.114574 12.1652 3.12833 -3.27315
240 1 0.114574 2.43304 3.12833 -3.27315
241 1 0.114574 7.2991 3.12833 -3.27315
242 1 4.32872 0 3.12833 -3.27314
323 2 3.03858 10.477 4.46474 -3.32409
324 2 1.40472 12.91 4.46474 -3.32409
325 2 4.32872 13.1085 4.46474 -3.32408
326 2 7.25273 3.1779 4.46474 -3.32408
327 2 0.114574 5.80937 4.46474 -3.32409
328 2 5.61887 5.61093 4.46474 -3.32408
329 2 0.114574 10.6754 4.46474 -3.32409
330 2 5.61887 10.477 4.46474 -3.32408
331 2 7.25273 8.04396 4.46474 -3.32409
332 2 0.114574 0.943306 4.46474 -3.32409
333 2 5.61887 0.744873 4.46474 -3.32408
334 2 7.25273 12.91 4.46474 -3.32408
335 2 1.40472 8.04396 4.46474 -3.32407
336 2 4.32872 8.24241 4.46474 -3.32408
337 2 3.03858 5.61092 4.46474 -3.32409
338 2 1.40472 3.1779 4.46474 -3.32408
339 2 4.32872 3.37635 4.46474 -3.32409
340 2 3.03858 0.744859 4.46474 -3.32408
341 2 0.22914 8.98727 6.64644 -4.12705
342 2 7.02359 6.55424 6.64644 -4.12705
343 2 1.51929 6.35579 6.64644 -4.12705
344 2 5.73344 8.78883 6.64644 -4.12705
345 2 2.80944 8.98727 6.64644 -4.12704
346 2 4.44329 11.4203 6.64644 -4.12706
347 2 0.22914 13.8533 6.64644 -4.12706
348 2 7.02359 11.4203 6.64644 -4.12704
349 2 1.51929 11.2219 6.64644 -4.12706
350 2 4.44329 1.68816 6.64644 -4.12706
351 2 5.73344 13.6549 6.64644 -4.12705
352 2 2.80944 13.8533 6.64644 -4.12705
353 2 0.22914 4.1212 6.64644 -4.12705
354 2 1.51929 1.48973 6.64644 -4.12705
355 2 7.02359 1.68816 6.64644 -4.12705
356 2 2.80944 4.1212 6.64644 -4.12704
357 2 5.73344 3.92275 6.64644 -4.12704
358 2 4.44329 6.55424 6.64644 -4.12706
165 1 5.73344 2.43304 14.5279 -6.40125
166 1 4.32872 4.86606 16.2184 -6.36394
167 1 5.73344 12.1652 14.5279 -6.40126
168 1 5.73344 7.2991 14.5279 -6.40126
169 1 4.32872 9.73212 16.2184 -6.35067
170 1 1.51928 4.86606 14.5279 -6.40124
171 1 0.114574 2.43304 16.2184 -6.37517
172 1 1.51928 0 14.5279 -6.40125
173 1 0.114574 12.1652 16.2184 -6.37639
174 1 1.51928 9.73212 14.5279 -6.40124
175 1 0.114574 7.2991 16.2184 -6.39419
176 1 4.32872 0 16.2184 -6.40314
177 1 2.92401 12.1652 10.1646 -6.40196
178 1 2.92401 7.2991 10.1646 -6.40195
179 1 1.51929 9.73212 11.855 -6.4021
180 1 7.13816 4.86606 10.1646 -6.40194
181 1 5.73344 2.43304 11.855 -6.40212
182 1 7.13816 0 10.1646 -6.40195
183 1 5.73344 12.1652 11.855 -6.40212
184 1 7.13816 9.73214 10.1646 -6.40194
185 1 5.73344 7.2991 11.855 -6.40212
186 1 2.92401 2.43304 10.1646 -6.40195
187 1 1.51929 0 11.855 -6.40212
188 1 1.51929 4.86606 11.855 -6.4021
189 1 4.32872 0 12.3462 -6.40196
190 1 2.92401 2.43304 14.0367 -6.38416
191 1 7.13816 0 14.0367 -6.38415
192 1 0.114574 7.2991 12.3462 -6.40197
193 1 0.114574 2.43304 12.3462 -6.40196
194 1 7.13816 4.86606 14.0367 -6.38415
195 1 4.32872 4.86606 12.3462 -6.40196
196 1 2.92401 7.2991 14.0367 -6.38417
197 1 0.114574 12.1652 12.3462 -6.40197
198 1 4.32872 9.73212 12.3462 -6.40196
199 1 7.13816 9.73214 14.0367 -6.38415
200 1 2.92401 12.1652 14.0367 -6.38418
226 1 0.114574 12.1652 9.67335 -6.40208
227 1 4.32872 9.73212 9.67335 -6.40207
230 1 0.114574 7.2991 9.67335 -6.40207
231 1 4.32872 4.86606 9.67335 -6.40207
234 1 0.114574 2.43304 9.67335 -6.40207
236 1 4.32872 0 9.67335 -6.40207
269 2 5.84801 4.1212 15.3731 -4.12743
270 2 7.13816 1.48973 15.3731 -4.12743
271 2 4.21415 1.68818 15.3731 -4.12744
272 2 5.84801 13.8533 15.3731 -4.12743
273 2 7.13816 11.2219 15.3731 -4.12743
274 2 4.21415 11.4203 15.3731 -4.12745
275 2 5.84801 8.98727 15.3731 -4.12743
276 2 7.13816 6.35579 15.3731 -4.12744
277 2 4.21415 6.55424 15.3731 -4.12745
278 2 0 4.1212 15.3731 -4.12742
279 2 2.92401 3.92275 15.3731 -4.12744
280 2 1.63386 6.55424 15.3731 -4.12744
281 2 1.63386 1.68816 15.3731 -4.12743
282 2 0 13.8533 15.3731 -4.12744
283 2 2.92401 13.6549 15.3731 -4.12745
284 2 0 8.98727 15.3731 -4.12744
285 2 2.92401 8.78882 15.3731 -4.12744
286 2 1.63386 11.4203 15.3731 -4.12744
287 2 3.03858 13.8533 11.0098 -4.12708
288 2 1.40472 11.4203 11.0098 -4.12708
289 2 4.32872 11.2219 11.0098 -4.12709
290 2 3.03858 8.98727 11.0098 -4.12707
291 2 1.40472 6.55424 11.0098 -4.12709
292 2 4.32872 6.35579 11.0098 -4.12709
293 2 5.61887 4.1212 11.0098 -4.12707
294 2 0.114574 3.92275 11.0098 -4.12708
295 2 7.25273 6.55424 11.0098 -4.12709
296 2 0.114574 13.6549 11.0098 -4.12709
297 2 5.61887 13.8533 11.0098 -4.12707
298 2 7.25273 1.68818 11.0098 -4.12709
299 2 7.25273 11.4203 11.0098 -4.12707
300 2 5.61887 8.98727 11.0098 -4.12708
301 2 0.114574 8.78882 11.0098 -4.12709
302 2 3.03858 4.1212 11.0098 -4.12707
303 2 4.32872 1.48973 11.0098 -4.12708
304 2 1.40472 1.68816 11.0098 -4.12708
305 2 5.73344 0.943306 13.1914 -4.12709
306 2 2.80944 0.744873 13.1914 -4.12708
307 2 4.44329 12.91 13.1914 -4.1271
308 2 0.22914 5.61093 13.1914 -4.12709
309 2 7.02359 8.04396 13.1914 -4.12709
310 2 1.51929 8.24241 13.1914 -4.12708
311 2 0.22914 0.744873 13.1914 -4.12709
312 2 7.02359 3.1779 13.1914 -4.12708
313 2 1.51929 3.37635 13.1914 -4.12708
314 2 4.44329 3.1779 13.1914 -4.12709
315 2 5.73344 5.80937 13.1914 -4.1271
316 2 2.80944 5.61093 13.1914 -4.12709
317 2 0.22914 10.477 13.1914 -4.12709
318 2 7.02359 12.91 13.1914 -4.12709
319 2 1.51929 13.1085 13.1914 -4.12709
320 2 4.44329 8.04396 13.1914 -4.12709
321 2 5.73344 10.6754 13.1914 -4.12709
322 2 2.80944 10.477 13.1914 -4.12709
359 2 5.84801 10.477 8.8281 -4.12712
360 2 7.13816 13.1085 8.8281 -4.12713
361 2 0 10.477 8.8281 -4.12713
362 2 1.63386 12.91 8.8281 -4.12713
363 2 4.21415 8.04396 8.8281 -4.12713
364 2 5.84801 5.61093 8.8281 -4.12712
365 2 7.13816 8.24241 8.8281 -4.12713
366 2 1.63386 8.04396 8.8281 -4.12711
367 2 2.92401 10.6754 8.8281 -4.12713
368 2 4.21415 3.1779 8.8281 -4.12712
369 2 5.84801 0.744873 8.8281 -4.12712
370 2 7.13816 3.37635 8.8281 -4.12712
371 2 1.63386 3.1779 8.8281 -4.12711
372 2 2.92401 5.80937 8.8281 -4.12713
373 2 2.92401 0.943306 8.8281 -4.12713
374 2 4.21415 12.91 8.8281 -4.12713
375 2 0 0.744859 8.8281 -4.12713
376 2 0 5.61092 8.8281 -4.12714
1 1 5.61888 0.980371 23.812 -2.93482
2 1 0 0.980371 23.812 -3.15973
3 1 2.80944 0.980371 23.812 -3.1037
4 1 5.61888 5.84643 23.8348 -3.21934
5 1 0 5.84643 23.8348 -2.94123
6 1 7.0236 3.41341 23.8235 -2.98274
7 1 1.40472 3.41341 23.8235 -2.92704
8 1 4.21416 3.41341 23.8235 -3.04333
9 1 2.80944 5.84643 23.8348 -3.1201
22 1 7.0236 8.27947 23.8462 -3.17153
23 1 1.40472 8.27947 23.8462 -2.90998
24 1 5.61888 10.7125 23.8576 -3.26314
25 1 0 10.7125 23.8576 -3.15126
26 1 4.21416 8.27947 23.8462 -3.23736
27 1 2.80944 10.7125 23.8576 -3.2846
29 1 4.21416 13.1455 23.869 -2.91719
31 1 7.0236 13.1455 23.869 -2.94744
33 1 1.40472 13.1455 23.869 -3.09178
145 1 5.69007 8.45143 21.576 -2.61761
146 1 3.48796 9.83678 21.1456 -2.85592
147 1 5.6439 11.0363 20.7068 -1.79022
148 1 1.36517 11.2205 21.4281 -2.18087
149 1 2.92401 12.1652 19.0018 -4.22058
150 1 5.26939 5.1648 21.2782 -2.86065
151 1 2.7373 5.32117 20.8406 -2.99311
152 1 2.92401 7.2991 19.0018 -6.85308
153 1 4.32872 4.86606 18.5106 -4.01643
154 1 2.92401 7.2991 16.7095 -6.44417
155 1 4.32872 9.73212 18.5106 -4.50879
156 1 2.92401 12.1652 16.7095 -6.56552
157 1 0.114574 12.1652 18.5106 -4.40815
158 1 0.114574 7.2991 18.5106 -4.12867
159 1 7.13816 9.73214 16.7095 -6.59758
160 1 0.114574 2.43304 18.5106 -4.38311
161 1 7.13816 4.86606 16.7095 -6.60544
162 1 4.32872 0 18.5106 -3.14506
163 1 2.92401 2.43304 16.7095 -6.57476
164 1 7.13816 0 16.7095 -6.60505
243 1 7.13816 4.86606 19.0018 -2.56611
244 1 7.13816 9.73214 19.0018 -2.81391
245 1 2.92401 2.43304 19.0018 -3.96077
246 1 7.13816 0 19.0018 -2.64428
247 1 2.73717 0.194916 20.5108 -2.5978
248 1 0.256973 0.809093 20.9592 -2.56004
249 2 1.45575 11.056 19.4341 -2.54102
250 2 4.26472 6.38322 19.8918 -3.03354
251 2 4.32872 3.37635 17.5548 -3.4105
252 2 3.03858 5.61093 17.5548 -3.68821
253 2 5.61887 5.61093 17.5548 -3.33338
254 2 4.32872 8.24241 17.5548 -3.61636
255 2 3.03858 10.477 17.5548 -3.70158
256 2 5.61887 10.477 17.5548 -3.39787
257 2 1.40472 12.91 17.5548 -3.60775
258 2 7.25273 12.91 17.5548 -3.38306
259 2 0.114574 10.6754 17.5548 -3.4836
260 2 0.114574 5.80937 17.5548 -3.49807
261 2 1.40472 8.04397 17.5548 -3.9264
262 2 7.25273 8.04397 17.5548 -3.36468
263 2 1.40472 3.1779 17.5548 -3.59419
264 2 7.25273 3.1779 17.5548 -3.39254
265 2 0.114574 0.943306 17.5548 -3.46791
266 2 4.32872 13.1085 17.5548 -3.25096
267 2 3.03858 0.744873 17.5548 -3.4801
268 2 5.61887 0.744873 17.5548 -3.24809
377 2 6.34157 6.73184 20.969 -1.33472
378 2 1.46921 1.37431 19.5204 -3.08578
379 2 2.87556 9.07639 19.4532 -2.63243
380 2 1.93805 1.36591 21.8857 -1.74707
381 2 1.72985 8.78228 21.2074 -2.47402
382 2 1.65473 6.02141 19.3535 -2.80477
383 2 1.99133 7.5926 20.9295 -2.90317
10 1 7.0236 5.02485 26.1582 -3.42
11 1 1.40472 5.02485 26.1582 -3.42951
12 1 5.61888 7.45787 26.1696 -3.39087
13 1 0 7.45787 26.1696 -3.42088
14 1 4.21416 5.02485 26.1582 -3.41108
15 1 2.80944 7.45787 26.1696 -3.40284
16 1 7.0236 9.89091 26.181 -3.39589
17 1 1.40472 9.89091 26.181 -3.41488
18 1 5.61888 12.3239 26.1924 -3.41873
19 1 0 12.3239 26.1924 -3.42823
20 1 4.21416 9.89091 26.181 -3.39247
21 1 2.80944 12.3239 26.1924 -3.41532
28 1 4.21416 0.158785 26.1354 -3.40047
30 1 7.0236 0.158785 26.1354 -3.41928
32 1 1.40472 0.158785 26.1354 -3.37694
34 1 5.61888 2.59181 26.1468 -3.43666
35 1 0 2.59181 26.1468 -3.42409
36 1 2.80944 2.59181 26.1468 -3.39548
37 1 5.61888 5.81468 30.8164 -3.35104
38 1 0 5.81468 30.8164 -3.35104
39 1 7.0236 8.24771 30.8277 -3.35103
40 1 1.40472 8.24771 30.8277 -3.35103
41 1 4.21416 8.24771 30.8277 -3.35103
42 1 2.80944 5.81468 30.8164 -3.35104
43 1 7.0236 1.77021 28.4702 -3.35207
44 1 1.40472 1.77021 28.4702 -3.35207
45 1 4.21416 1.77021 28.4702 -3.35207
46 1 7.0236 6.63627 28.493 -3.35105
47 1 1.40472 6.63627 28.493 -3.35104
48 1 5.61888 4.20324 28.4816 -3.35108
49 1 0 4.20324 28.4816 -3.35108
50 1 4.21416 6.63627 28.493 -3.35104
51 1 2.80944 4.20324 28.4816 -3.35108
52 1 5.61888 9.06931 28.5044 -3.35104
53 1 0 9.06931 28.5044 -3.35104
54 1 7.0236 11.5023 28.5158 -3.35223
55 1 1.40472 11.5023 28.5158 -3.35223
56 1 4.21416 11.5023 28.5158 -3.35223
57 1 2.80944 9.06931 28.5044 -3.35104
58 1 2.80944 0.94862 30.7936 -3.3559
59 1 2.80944 13.9354 28.5271 -3.34153
60 1 0 0.94862 30.7936 -3.3559
61 1 0 13.9354 28.5271 -3.34154
62 1 5.61888 0.94862 30.7936 -3.3559
63 1 5.61888 13.9354 28.5271 -3.34153
64 1 7.0236 3.38164 30.805 -3.34972
65 1 1.40472 3.38164 30.805 -3.34972
66 1 4.21416 3.38164 30.805 -3.34972
77 1 4.21416 13.1138 30.8505 -3.35589
78 1 5.61888 10.6807 30.8392 -3.34972
79 1 0 10.6807 30.8392 -3.34973
81 1 7.0236 13.1138 30.8505 -3.3559
83 1 1.40472 13.1138 30.8505 -3.35589
84 1 2.80944 10.6807 30.8392 -3.34972
67 1 5.61888 7.42612 33.1512 -3.35104
68 1 0 7.42612 33.1512 -3.35104
69 1 7.0236 9.85914 33.1626 -3.35108
70 1 1.40472 9.85914 33.1626 -3.35108
71 1 4.21416 9.85914 33.1626 -3.35108
72 1 2.80944 7.42612 33.1512 -3.35104
73 1 5.61888 12.2922 33.1739 -3.35206
74 1 0 12.2922 33.1739 -3.35206
75 1 2.80944 12.2922 33.1739 -3.35206
76 1 4.21416 0.127019 33.117 -3.34154
80 1 7.0236 0.127019 33.117 -3.34154
82 1 1.40472 0.127019 33.117 -3.34154
85 1 5.61888 2.56006 33.1284 -3.35222
86 1 0 2.56006 33.1284 -3.35222
87 1 7.0236 4.99308 33.1397 -3.35105
88 1 1.40472 4.99308 33.1397 -3.35104
89 1 4.21416 4.99308 33.1397 -3.35104
90 1 2.80944 2.56006 33.1284 -3.35222
91 1 5.61888 12.2604 40.1555 -2.97112
92 1 0 12.2604 40.1555 -2.97112
93 1 2.80944 12.2604 40.1555 -2.97111
94 1 7.0236 9.82739 40.1441 -2.97446
95 1 1.40472 9.82739 40.1441 -2.97446
96 1 4.21416 9.82739 40.1441 -2.97446
97 1 5.61888 5.78293 37.7979 -3.43976
98 1 0 5.78293 37.7979 -3.43976
99 1 7.0236 8.21595 37.8093 -3.43975
100 1 1.40472 8.21595 37.8093 -3.43975
101 1 4.21416 8.21595 37.8093 -3.43975
102 1 2.80944 5.78293 37.7979 -3.43976
103 1 4.21416 0.095268 40.0985 -2.9788
104 1 4.21416 13.082 37.8321 -3.44396
105 1 5.61888 2.52829 40.11 -2.97213
106 1 0 2.52829 40.11 -2.97213
107 1 5.61888 10.649 37.8207 -3.43844
108 1 0 10.649 37.8207 -3.43844
109 1 7.0236 0.095268 40.0985 -2.97881
110 1 7.0236 13.082 37.8321 -3.44396
111 1 1.40472 0.095268 40.0985 -2.97881
112 1 1.40472 13.082 37.8321 -3.44396
113 1 2.80944 2.52829 40.11 -2.97213
114 1 2.80944 10.649 37.8207 -3.43844
115 1 7.0236 4.96133 40.1213 -2.97443
116 1 1.40472 4.96133 40.1213 -2.97443
117 1 5.61888 7.39435 40.1327 -2.97441
118 1 0 7.39435 40.1327 -2.97442
119 1 4.21416 4.96133 40.1213 -2.97442
120 1 2.80944 7.39435 40.1327 -2.97441
121 1 5.61888 9.03756 35.4859 -3.35104
122 1 0 9.03756 35.4859 -3.35105
123 1 7.0236 11.4706 35.4973 -3.35223
124 1 1.40472 11.4706 35.4973 -3.35223
125 1 4.21416 11.4706 35.4973 -3.35223
126 1 2.80944 9.03756 35.4859 -3.35104
127 1 2.80944 0.916869 37.7751 -3.4418
128 1 2.80944 13.9036 35.5087 -3.34154
129 1 0 0.916869 37.7751 -3.44181
130 1 0 13.9036 35.5087 -3.34155
131 1 5.61888 0.916869 37.7751 -3.4418
132 1 5.61888 13.9036 35.5087 -3.34154
133 1 7.0236 3.34989 37.7865 -3.43844
134 1 1.40472 3.34989 37.7865 -3.43843
135 1 4.21416 3.34989 37.7865 -3.43843
136 1 7.0236 1.73846 35.4518 -3.35208
137 1 1.40472 1.73846 35.4518 -3.35207
138 1 4.21416 1.73846 35.4518 -3.35207
139 1 7.0236 6.60452 35.4745 -3.35104
140 1 1.40472 6.60452 35.4745 -3.35104
141 1 5.61888 4.17149 35.4632 -3.35108
142 1 0 4.17149 35.4632 -3.35108
143 1 4.21416 6.60452 35.4745 -3.35104
144 1 2.80944 4.17149 35.4632 -3.35108
