ITEM: TIMESTEP
1015
ITEM: NUMBER OF ATOMS
18
ITEM: BOX BOUNDS ff ff ff
0.0000000000000000e+00 1.8000000000000000e+01
0.0000000000000000e+00 1.8000000000000000e+01
0.0000000000000000e+00 1.8000000000000000e+01
ITEM: ATOMS id type x y z c_peatom 
7 1 11.3991 6.29472 8.43622 -3.2066 
2 1 8.23649 9.52598 6.40789 -5.81723 
10 2 6.96841 8.96762 7.34014 -3.0804 
16 2 7.80305 11.3286 6.66167 -3.58485 
5 1 9.10923 11.753 7.88839 -5.13711 
4 1 11.4445 9.23022 7.93116 -5.57939 
17 2 9.53936 9.84936 7.91131 -4.20718 
11 2 12.2318 10.7025 7.89344 -3.12504 
1 1 7.48393 7.606 11.1757 -7.74478 
15 2 6.55475 6.30853 10.5128 -2.59666 
18 2 6.24659 8.71718 11.4577 -2.75004 
8 2 7.81859 8.31742 9.44753 -3.26228 
3 1 10.803 7.66012 10.6887 -4.91241 
14 2 9.3294 8.59159 11.4997 -3.53824 
9 2 10.0172 6.64146 9.31485 -4.82891 
13 2 8.12412 11.4289 9.37876 -3.44752 
6 1 8.95436 9.71936 9.85995 -6.44779 
12 2 10.9765 9.35762 9.82361 -3.88959 
