LAMMPS (30 Nov 2020)
  using 1 OpenMP thread(s) per MPI task
Reading data file ...
  orthogonal box = (0.0000000 0.0000000 0.0000000) to (18.000000 18.000000 18.000000)
  1 by 1 by 2 MPI processor grid
  reading atoms ...
  18 atoms
  read_data CPU = 0.002 seconds
Reading tersoff/zbl potential file /sandbox/vkolluru/Fantastx/examples/TiO2_clusters/Ti-O.tersoff.zbl with DATE: 2018-05-16
WARNING: Using 'neigh_modify every 1 delay 0 check yes' setting during minimization (../min.cpp:188)
Neighbor list info ...
  update every 1 steps, delay 0 steps, check yes
  max neighbors/atom: 1000, page size: 100000
  master list distance cutoff = 5.35
  ghost atom cutoff = 5.35
  binsize = 2.675, bins = 7 7 7
  1 neighbor lists, perpetual/occasional/extra = 1 0 0
  (1) pair tersoff/zbl, perpetual
      attributes: full, newton on
      pair build: full/bin/atomonly
      stencil: full/bin/3d
      bin: standard
Setting up cg style minimization ...
  Unit style    : metal
  Current step  : 0
Per MPI rank memory allocation (min/avg/max) = 4.421 | 4.421 | 4.421 Mbytes
Step Temp E_pair E_mol TotEng Press 
       0            0   -16.509997            0   -16.509997    15637.915 
       1            0   -27.148264            0   -27.148264    10553.865 
Loop time of 0.000241471 on 2 procs for 1 steps with 18 atoms

44.3% CPU use with 2 MPI tasks x 1 OpenMP threads

Minimization stats:
  Stopping criterion = max force evaluations
  Energy initial, next-to-last, final = 
     -16.5099966296827  -16.5099966296827  -27.1482643471774
  Force two-norm initial, final = 85.043077 37.542014
  Force max component initial, final = 42.938307 15.881750
  Final line search alpha, max atom move = 0.0023289228 0.036987369
  Iterations, force evaluations = 1 1

MPI task timing breakdown:
Section |  min time  |  avg time  |  max time  |%varavg| %total
---------------------------------------------------------------
Pair    | 0.00012745 | 0.00014268 | 0.00015791 |   0.0 | 59.09
Neigh   | 0          | 0          | 0          |   0.0 |  0.00
Comm    | 1.3024e-05 | 2.8588e-05 | 4.4152e-05 |   0.0 | 11.84
Output  | 0          | 0          | 0          |   0.0 |  0.00
Modify  | 0          | 0          | 0          |   0.0 |  0.00
Other   |            | 7.02e-05   |            |       | 29.07

Nlocal:        9.00000 ave          10 max           8 min
Histogram: 1 0 0 0 0 0 0 0 0 1
Nghost:        9.00000 ave          10 max           8 min
Histogram: 1 0 0 0 0 0 0 0 0 1
Neighs:         0.00000 ave           0 max           0 min
Histogram: 2 0 0 0 0 0 0 0 0 0
FullNghs:      135.000 ave         147 max         123 min
Histogram: 1 0 0 0 0 0 0 0 0 1

Total # of neighbors = 270
Ave neighs/atom = 15.000000
Neighbor list builds = 0
Dangerous builds = 0
WARNING: Using 'neigh_modify every 1 delay 0 check yes' setting during minimization (../min.cpp:188)
Setting up cg style minimization ...
  Unit style    : metal
  Current step  : 1
Per MPI rank memory allocation (min/avg/max) = 4.421 | 4.421 | 4.421 Mbytes
Step Temp E_pair E_mol TotEng Press 
       1            0   -27.148264            0   -27.148264    10553.865 
     838            0   -77.360359            0   -77.360359   0.10857102 
Loop time of 0.158033 on 2 procs for 837 steps with 18 atoms

91.1% CPU use with 2 MPI tasks x 1 OpenMP threads

Minimization stats:
  Stopping criterion = force tolerance
  Energy initial, next-to-last, final = 
     -27.1482643471774  -77.3603589098018  -77.3603589307764
  Force two-norm initial, final = 37.542014 0.00093256543
  Force max component initial, final = 15.881750 0.00048975961
  Final line search alpha, max atom move = 1.0000000 0.00048975961
  Iterations, force evaluations = 837 2535

MPI task timing breakdown:
Section |  min time  |  avg time  |  max time  |%varavg| %total
---------------------------------------------------------------
Pair    | 0.10938    | 0.12712    | 0.14487    |   5.0 | 80.44
Neigh   | 2.9422e-05 | 3.4334e-05 | 3.9246e-05 |   0.0 |  0.02
Comm    | 0.0053159  | 0.023378   | 0.041439   |  11.8 | 14.79
Output  | 0          | 0          | 0          |   0.0 |  0.00
Modify  | 0          | 0          | 0          |   0.0 |  0.00
Other   |            | 0.007497   |            |       |  4.74

Nlocal:        9.00000 ave          10 max           8 min
Histogram: 1 0 0 0 0 0 0 0 0 1
Nghost:        9.00000 ave          10 max           8 min
Histogram: 1 0 0 0 0 0 0 0 0 1
Neighs:         0.00000 ave           0 max           0 min
Histogram: 2 0 0 0 0 0 0 0 0 0
FullNghs:      127.000 ave         141 max         113 min
Histogram: 1 0 0 0 0 0 0 0 0 1

Total # of neighbors = 254
Ave neighs/atom = 14.111111
Neighbor list builds = 5
Dangerous builds = 0
WARNING: Using 'neigh_modify every 1 delay 0 check yes' setting during minimization (../min.cpp:188)
Setting up cg style minimization ...
  Unit style    : metal
  Current step  : 838
Per MPI rank memory allocation (min/avg/max) = 4.421 | 4.421 | 4.421 Mbytes
Step Temp E_pair E_mol TotEng Press 
     838            0   -77.360359            0   -77.360359   0.10857102 
     959            0   -77.360361            0   -77.360361 -0.0038241108 
Loop time of 0.0164759 on 2 procs for 121 steps with 18 atoms

91.5% CPU use with 2 MPI tasks x 1 OpenMP threads

Minimization stats:
  Stopping criterion = force tolerance
  Energy initial, next-to-last, final = 
     -77.3603589307764  -77.3603610322928  -77.3603610325241
  Force two-norm initial, final = 0.00093256543 8.1929366e-05
  Force max component initial, final = 0.00048975961 3.8224439e-05
  Final line search alpha, max atom move = 1.0000000 3.8224439e-05
  Iterations, force evaluations = 121 270

MPI task timing breakdown:
Section |  min time  |  avg time  |  max time  |%varavg| %total
---------------------------------------------------------------
Pair    | 0.0124     | 0.013199   | 0.013999   |   0.7 | 80.11
Neigh   | 0          | 0          | 0          |   0.0 |  0.00
Comm    | 0.00039792 | 0.0012274  | 0.0020569  |   2.4 |  7.45
Output  | 0          | 0          | 0          |   0.0 |  0.00
Modify  | 0          | 0          | 0          |   0.0 |  0.00
Other   |            | 0.002049   |            |       | 12.44

Nlocal:        9.00000 ave           9 max           9 min
Histogram: 2 0 0 0 0 0 0 0 0 0
Nghost:        9.00000 ave           9 max           9 min
Histogram: 2 0 0 0 0 0 0 0 0 0
Neighs:         0.00000 ave           0 max           0 min
Histogram: 2 0 0 0 0 0 0 0 0 0
FullNghs:      134.000 ave         135 max         133 min
Histogram: 1 0 0 0 0 0 0 0 0 1

Total # of neighbors = 268
Ave neighs/atom = 14.888889
Neighbor list builds = 0
Dangerous builds = 0
Total wall time: 0:00:00
