ITEM: TIMESTEP
959
ITEM: NUMBER OF ATOMS
18
ITEM: BOX BOUNDS ff ff ff
0.0000000000000000e+00 1.8000000000000000e+01
0.0000000000000000e+00 1.8000000000000000e+01
0.0000000000000000e+00 1.8000000000000000e+01
ITEM: ATOMS id type x y z c_peatom
3 1 7.47697 9.05258 5.59941 -4.19355
7 1 7.60968 7.83947 8.05739 -7.14662
18 2 7.19791 7.41425 6.19343 -3.7076
5 1 10.2185 8.59603 6.70091 -5.9287
14 2 11.8547 8.19237 6.92088 -2.90408
17 2 9.63295 7.57782 8.19148 -3.36667
4 1 8.50951 10.7481 7.92649 -4.53935
15 2 7.0314 9.61721 7.28629 -4.19342
13 2 10.2859 10.0644 7.88803 -3.81022
16 2 6.35 7.161 9.01749 -2.72787
11 2 11.5232 7.73168 9.60309 -2.48684
12 2 9.90495 7.99376 11.446 -3.6078
1 1 10.2734 8.94177 9.7174 -9.40146
2 1 7.81372 10.457 10.8023 -3.68809
8 2 8.2401 9.44962 9.27086 -4.48755
9 2 9.59149 10.5638 11.1416 -4.42484
10 2 11.4643 10.1964 9.85852 -2.51433
6 1 9.71983 9.35207 12.5268 -4.23137
