ITEM: TIMESTEP
476
ITEM: NUMBER OF ATOMS
17
ITEM: BOX BOUNDS ff ff ff
0.0000000000000000e+00 1.8000000000000000e+01
0.0000000000000000e+00 1.8000000000000000e+01
0.0000000000000000e+00 1.8000000000000000e+01
ITEM: ATOMS id type x y z c_peatom
4 1 6.1668 8.12741 8.7359 -4.27839
10 2 8.22423 7.69082 8.18339 -4.03498
2 1 10.112 7.02881 7.96055 -4.74688
8 2 10.4415 7.65344 6.28105 -3.50693
9 2 10.7229 8.70987 8.53783 -4.31422
3 1 8.64337 9.78249 8.04485 -7.82065
15 2 7.46286 10.9498 7.62907 -2.70634
1 1 10.97 9.51788 6.65187 -5.91384
11 2 9.21192 9.63168 6.18691 -3.33133
17 2 10.2201 10.843 7.85862 -3.08352
5 1 8.22836 7.39564 10.144 -4.62933
12 2 6.46086 6.87363 9.93793 -4.29155
7 1 10.8108 8.80754 10.4688 -3.92081
14 2 7.6087 9.2122 9.79118 -4.0953
6 1 8.58875 10.3777 11.175 -5.76674
13 2 8.14929 11.8677 10.5501 -3.09475
16 2 10.4109 10.517 10.6934 -4.03178
