ITEM: TIMESTEP
1400
ITEM: NUMBER OF ATOMS
18
ITEM: BOX BOUNDS ff ff ff
0.0000000000000000e+00 1.8000000000000000e+01
0.0000000000000000e+00 1.8000000000000000e+01
0.0000000000000000e+00 1.8000000000000000e+01
ITEM: ATOMS id type x y z c_peatom 
9 2 9.08676 6.87919 7.91228 -0.844454 
11 2 10.6282 7.06477 8.35583 -3.35651 
8 2 12.9426 8.26305 8.05253 -3.71158 
5 1 12.3734 6.61917 7.98826 -4.13043 
4 1 5.86365 10.1282 7.77425 -4.20932 
1 1 8.48951 9.96307 8.9285 -7.96587 
10 2 7.47003 10.6663 7.33465 -3.61175 
18 2 9.81964 9.16127 7.73373 -3.1609 
7 1 11.3048 9.12791 8.84478 -6.78624 
13 2 6.13526 8.05046 11.4945 -4.20496 
6 1 7.87787 7.87528 11.7844 -3.94437 
17 2 6.61807 8.9692 8.96367 -4.29386 
16 2 10.8533 8.23381 10.4319 -3.67418 
15 2 8.40935 11.6774 9.17451 -2.67679 
2 1 6.20935 9.71049 10.6538 -4.67554 
14 2 8.21364 9.57319 11.0404 -4.38208 
3 1 10.2228 9.67539 11.3572 -4.81493 
12 2 10.3669 10.6236 9.756 -3.72863 
