ITEM: TIMESTEP
1170
ITEM: NUMBER OF ATOMS
18
ITEM: BOX BOUNDS ff ff ff
0.0000000000000000e+00 1.8000000000000000e+01
0.0000000000000000e+00 1.8000000000000000e+01
0.0000000000000000e+00 1.8000000000000000e+01
ITEM: ATOMS id type x y z c_peatom 
10 2 9.5766 9.58026 5.04662 -2.23379 
13 2 10.4904 10.7266 5.19526 -1.26462 
1 1 9.649 5.96683 8.216 -4.44214 
2 1 9.01912 8.39667 6.9944 -5.39025 
12 2 10.0609 6.89279 6.73781 -4.1029 
3 1 8.85131 10.7243 8.67637 -5.15034 
15 2 10.3073 9.40311 7.9781 -3.90474 
8 2 8.36527 8.87608 9.07978 -3.99084 
14 2 6.47813 7.88273 10.1987 -2.84406 
5 1 10.2251 8.34968 9.67477 -6.49108 
17 2 9.14802 8.66762 11.368 -3.80267 
16 2 10.9817 6.62125 9.19046 -3.69364 
4 1 7.34761 9.22005 10.8087 -6.28965 
18 2 7.10709 10.8546 9.68573 -4.25628 
6 1 10.0597 10.343 11.5722 -4.97768 
9 2 11.3589 9.63298 10.5107 -3.58723 
11 2 9.51118 11.637 10.2402 -4.6338 
7 1 7.82819 12.0479 10.8778 -3.8449 
