ITEM: TIMESTEP
1234
ITEM: NUMBER OF ATOMS
18
ITEM: BOX BOUNDS ff ff ff
0.0000000000000000e+00 1.8000000000000000e+01
0.0000000000000000e+00 1.8000000000000000e+01
0.0000000000000000e+00 1.8000000000000000e+01
ITEM: ATOMS id type x y z c_peatom
5 1 8.58382 7.58897 7.94491 -6.34241
6 1 6.24396 8.9404 8.73216 -5.79672
12 2 6.73008 7.20236 8.43772 -3.33303
1 1 11.2308 7.94307 7.6839 -6.09284
15 2 10.0672 6.9243 8.98134 -3.80434
16 2 9.85793 6.72338 6.71638 -2.82131
18 2 9.68402 8.99631 6.99632 -3.74731
8 2 8.32656 9.40489 8.84777 -4.05283
11 2 11.5072 9.95454 8.00883 -3.87648
2 1 9.69462 10.6384 8.00768 -5.25775
13 2 5.74105 8.64886 10.3016 -3.07909
14 2 8.70266 7.94511 11.19 -3.46675
4 1 10.459 7.44416 10.8032 -5.59688
9 2 11.962 8.09886 9.585 -3.7306
3 1 8.81706 9.75693 10.6969 -5.45481
17 2 10.6275 9.28392 11.3087 -3.91259
7 1 11.8412 9.96515 9.90907 -5.46503
10 2 10.1687 10.993 9.83899 -3.83784
