ITEM: TIMESTEP
273
ITEM: NUMBER OF ATOMS
18
ITEM: BOX BOUNDS ff ff ff
0.0000000000000000e+00 1.8000000000000000e+01
0.0000000000000000e+00 1.8000000000000000e+01
0.0000000000000000e+00 1.8000000000000000e+01
ITEM: ATOMS id type x y z c_peatom 
1 1 8.62122 8.21635 5.86384 -4.29759 
6 1 7.37819 8.87096 8.48355 -4.18531 
12 2 7.17805 7.00003 8.93482 -3.78466 
14 2 8.13728 6.57711 6.25487 -3.66203 
7 1 9.08141 6.51612 8.03582 -6.76247 
8 2 10.9877 6.42896 8.33612 -3.22497 
15 2 10.096 7.98682 6.90303 -3.83207 
4 1 10.1652 9.65014 8.15935 -6.8575 
9 2 10.9916 11.1194 7.76645 -2.70219 
16 2 9.48476 5.93939 10.0047 -3.46307 
3 1 7.99755 7.02082 10.7672 -6.04177 
17 2 7.7224 8.70058 11.6945 -3.29136 
10 2 9.13249 8.10711 9.3399 -4.51862 
11 2 9.77719 7.69573 11.5059 -3.5966 
2 1 10.9893 7.29782 10.0209 -6.08656 
18 2 8.57464 10.3168 9.14099 -3.84338 
13 2 11.0234 9.29438 9.86024 -3.56473 
5 1 9.22186 9.5589 10.8967 -5.94538 
