LAMMPS (30 Nov 2020)
  using 1 OpenMP thread(s) per MPI task
Reading data file ...
  orthogonal box = (0.0000000 0.0000000 0.0000000) to (18.000000 18.000000 18.000000)
  1 by 1 by 2 MPI processor grid
  reading atoms ...
  15 atoms
  read_data CPU = 0.002 seconds
Reading tersoff/zbl potential file /sandbox/vkolluru/Fantastx/examples/TiO2_clusters/Ti-O.tersoff.zbl with DATE: 2018-05-16
WARNING: Using 'neigh_modify every 1 delay 0 check yes' setting during minimization (../min.cpp:188)
Neighbor list info ...
  update every 1 steps, delay 0 steps, check yes
  max neighbors/atom: 1000, page size: 100000
  master list distance cutoff = 5.35
  ghost atom cutoff = 5.35
  binsize = 2.675, bins = 7 7 7
  1 neighbor lists, perpetual/occasional/extra = 1 0 0
  (1) pair tersoff/zbl, perpetual
      attributes: full, newton on
      pair build: full/bin/atomonly
      stencil: full/bin/3d
      bin: standard
Setting up cg style minimization ...
  Unit style    : metal
  Current step  : 0
Per MPI rank memory allocation (min/avg/max) = 4.421 | 4.421 | 4.421 Mbytes
Step Temp E_pair E_mol TotEng Press 
       0            0   -14.079043            0   -14.079043     23258.17 
       1            0   -26.334019            0   -26.334019    14259.579 
Loop time of 0.000357153 on 2 procs for 1 steps with 15 atoms

92.8% CPU use with 2 MPI tasks x 1 OpenMP threads

Minimization stats:
  Stopping criterion = max force evaluations
  Energy initial, next-to-last, final = 
     -14.0790428673803  -14.0790428673803  -26.3340186722366
  Force two-norm initial, final = 70.960424 42.275388
  Force max component initial, final = 31.366432 22.453016
  Final line search alpha, max atom move = 0.0031881216 0.071582944
  Iterations, force evaluations = 1 1

MPI task timing breakdown:
Section |  min time  |  avg time  |  max time  |%varavg| %total
---------------------------------------------------------------
Pair    | 9.1508e-05 | 0.00015889 | 0.00022626 |   0.0 | 44.49
Neigh   | 0          | 0          | 0          |   0.0 |  0.00
Comm    | 2.8014e-05 | 9.6112e-05 | 0.00016421 |   0.0 | 26.91
Output  | 0          | 0          | 0          |   0.0 |  0.00
Modify  | 0          | 0          | 0          |   0.0 |  0.00
Other   |            | 0.0001022  |            |       | 28.60

Nlocal:        7.50000 ave          10 max           5 min
Histogram: 1 0 0 0 0 0 0 0 0 1
Nghost:        7.50000 ave          10 max           5 min
Histogram: 1 0 0 0 0 0 0 0 0 1
Neighs:         0.00000 ave           0 max           0 min
Histogram: 2 0 0 0 0 0 0 0 0 0
FullNghs:      100.000 ave         132 max          68 min
Histogram: 1 0 0 0 0 0 0 0 0 1

Total # of neighbors = 200
Ave neighs/atom = 13.333333
Neighbor list builds = 0
Dangerous builds = 0
WARNING: Using 'neigh_modify every 1 delay 0 check yes' setting during minimization (../min.cpp:188)
Setting up cg style minimization ...
  Unit style    : metal
  Current step  : 1
Per MPI rank memory allocation (min/avg/max) = 4.421 | 4.421 | 4.421 Mbytes
Step Temp E_pair E_mol TotEng Press 
       1            0   -26.334019            0   -26.334019    14259.579 
     179            0   -63.778618            0   -63.778618   -8.8233257 
Loop time of 0.0564587 on 2 procs for 178 steps with 15 atoms

90.3% CPU use with 2 MPI tasks x 1 OpenMP threads

Minimization stats:
  Stopping criterion = linesearch alpha is zero
  Energy initial, next-to-last, final = 
     -26.3340186722366  -63.7786177618733  -63.7786177618733
  Force two-norm initial, final = 42.275388 0.081722067
  Force max component initial, final = 22.453016 0.035562479
  Final line search alpha, max atom move = 9.5367432e-07 3.3915023e-08
  Iterations, force evaluations = 178 694

MPI task timing breakdown:
Section |  min time  |  avg time  |  max time  |%varavg| %total
---------------------------------------------------------------
Pair    | 0.02327    | 0.036398   | 0.049525   |   6.9 | 64.47
Neigh   | 2.1089e-05 | 2.6196e-05 | 3.1304e-05 |   0.0 |  0.05
Comm    | 0.0031499  | 0.016387   | 0.029624   |  10.3 | 29.02
Output  | 0          | 0          | 0          |   0.0 |  0.00
Modify  | 0          | 0          | 0          |   0.0 |  0.00
Other   |            | 0.003648   |            |       |  6.46

Nlocal:        7.50000 ave           9 max           6 min
Histogram: 1 0 0 0 0 0 0 0 0 1
Nghost:        7.50000 ave           9 max           6 min
Histogram: 1 0 0 0 0 0 0 0 0 1
Neighs:         0.00000 ave           0 max           0 min
Histogram: 2 0 0 0 0 0 0 0 0 0
FullNghs:      92.0000 ave         112 max          72 min
Histogram: 1 0 0 0 0 0 0 0 0 1

Total # of neighbors = 184
Ave neighs/atom = 12.266667
Neighbor list builds = 3
Dangerous builds = 0
WARNING: Using 'neigh_modify every 1 delay 0 check yes' setting during minimization (../min.cpp:188)
Setting up cg style minimization ...
  Unit style    : metal
  Current step  : 179
Per MPI rank memory allocation (min/avg/max) = 4.421 | 4.421 | 4.421 Mbytes
Step Temp E_pair E_mol TotEng Press 
     179            0   -63.778618            0   -63.778618   -8.8233257 
     180            0   -63.778618            0   -63.778618   -8.8233257 
Loop time of 0.00440205 on 2 procs for 1 steps with 15 atoms

83.5% CPU use with 2 MPI tasks x 1 OpenMP threads

Minimization stats:
  Stopping criterion = linesearch alpha is zero
  Energy initial, next-to-last, final = 
     -63.7786177618733  -63.7786177618733  -63.7786177618733
  Force two-norm initial, final = 0.081722067 0.081722067
  Force max component initial, final = 0.035562479 0.035562479
  Final line search alpha, max atom move = 9.5367432e-07 3.3915023e-08
  Iterations, force evaluations = 1 36

MPI task timing breakdown:
Section |  min time  |  avg time  |  max time  |%varavg| %total
---------------------------------------------------------------
Pair    | 0.0012778  | 0.0019901  | 0.0027023  |   1.6 | 45.21
Neigh   | 0          | 0          | 0          |   0.0 |  0.00
Comm    | 6.8065e-05 | 0.00078441 | 0.0015008  |   0.0 | 17.82
Output  | 0          | 0          | 0          |   0.0 |  0.00
Modify  | 0          | 0          | 0          |   0.0 |  0.00
Other   |            | 0.001628   |            |       | 36.97

Nlocal:        7.50000 ave           9 max           6 min
Histogram: 1 0 0 0 0 0 0 0 0 1
Nghost:        7.50000 ave           9 max           6 min
Histogram: 1 0 0 0 0 0 0 0 0 1
Neighs:         0.00000 ave           0 max           0 min
Histogram: 2 0 0 0 0 0 0 0 0 0
FullNghs:      92.0000 ave         112 max          72 min
Histogram: 1 0 0 0 0 0 0 0 0 1

Total # of neighbors = 184
Ave neighs/atom = 12.266667
Neighbor list builds = 0
Dangerous builds = 0
Total wall time: 0:00:00
