ITEM: TIMESTEP
55
ITEM: NUMBER OF ATOMS
388
ITEM: BOX BOUNDS pp pp pp
0.0000000000000000e+00 8.4283000000000001e+00
0.0000000000000000e+00 1.4598200000000000e+01
0.0000000000000000e+00 4.9476269000000002e+01
ITEM: ATOMS id type x y z c_peatom
60 1 2.92401 12.1652 3.61953 -2.2941
61 1 7.13816 4.86606 3.61953 -2.29409
62 1 5.73344 7.2991 5.31004 -6.5982
63 1 7.13816 9.73214 3.61953 -2.29409
64 1 5.73344 12.1652 5.31004 -6.5982
65 1 7.13816 0 3.61953 -2.29408
66 1 5.73344 2.43304 5.31004 -6.5982
67 1 2.92401 7.2991 3.61953 -2.29408
68 1 1.51929 9.73212 5.31004 -6.59819
69 1 2.92401 2.43304 3.61953 -2.29408
70 1 1.51929 4.86606 5.31004 -6.5982
71 1 1.51929 0 5.31004 -6.59819
72 1 0.114574 7.2991 5.80124 -6.54405
73 1 4.32872 9.73212 5.80124 -6.54404
74 1 2.92401 7.2991 7.4917 -6.40207
75 1 0.114574 12.1652 5.80124 -6.54405
76 1 7.13816 9.73214 7.4917 -6.40206
77 1 4.32872 0 5.80124 -6.54405
78 1 2.92401 12.1652 7.4917 -6.40208
79 1 0.114574 2.43304 5.80124 -6.54404
80 1 7.13816 0 7.4917 -6.40207
81 1 4.32872 4.86606 5.80124 -6.54403
82 1 2.92401 2.43304 7.4917 -6.40207
83 1 7.13816 4.86606 7.4917 -6.40206
84 1 5.73344 12.1652 7.98285 -6.40205
87 1 5.73344 7.2991 7.98285 -6.40204
88 1 1.51929 9.73212 7.98285 -6.40204
91 1 5.73344 2.43304 7.98285 -6.40204
92 1 1.51929 4.86606 7.98285 -6.40204
94 1 1.51929 0 7.98285 -6.40204
96 1 4.32872 9.73212 3.12833 -3.27315
97 1 4.32872 4.86606 3.12833 -3.27316
98 1 0.114574 12.1652 3.12833 -3.27315
99 1 0.114574 2.43304 3.12833 -3.27315
100 1 0.114574 7.2991 3.12833 -3.27315
101 1 4.32872 0 3.12833 -3.27314
331 2 3.03858 10.477 4.46474 -3.32409
332 2 1.40472 12.91 4.46474 -3.32409
333 2 4.32872 13.1085 4.46474 -3.32408
334 2 7.25273 3.1779 4.46474 -3.32408
335 2 0.114574 5.80937 4.46474 -3.32409
336 2 5.61887 5.61093 4.46474 -3.32408
337 2 0.114574 10.6754 4.46474 -3.32409
338 2 5.61887 10.477 4.46474 -3.32408
339 2 7.25273 8.04396 4.46474 -3.32409
340 2 0.114574 0.943306 4.46474 -3.32409
341 2 5.61887 0.744873 4.46474 -3.32408
342 2 7.25273 12.91 4.46474 -3.32408
343 2 1.40472 8.04396 4.46474 -3.32407
344 2 4.32872 8.24241 4.46474 -3.32408
345 2 3.03858 5.61092 4.46474 -3.32409
346 2 1.40472 3.1779 4.46474 -3.32408
347 2 4.32872 3.37635 4.46474 -3.32409
348 2 3.03858 0.744859 4.46474 -3.32408
349 2 0.22914 8.98727 6.64644 -4.12705
350 2 7.02359 6.55424 6.64644 -4.12705
351 2 1.51929 6.35579 6.64644 -4.12705
352 2 5.73344 8.78883 6.64644 -4.12705
353 2 2.80944 8.98727 6.64644 -4.12704
354 2 4.44329 11.4203 6.64644 -4.12706
355 2 0.22914 13.8533 6.64644 -4.12706
356 2 7.02359 11.4203 6.64644 -4.12704
357 2 1.51929 11.2219 6.64644 -4.12706
358 2 4.44329 1.68816 6.64644 -4.12706
359 2 5.73344 13.6549 6.64644 -4.12705
360 2 2.80944 13.8533 6.64644 -4.12705
361 2 0.22914 4.1212 6.64644 -4.12705
362 2 1.51929 1.48973 6.64644 -4.12705
363 2 7.02359 1.68816 6.64644 -4.12705
364 2 2.80944 4.1212 6.64644 -4.12704
365 2 5.73344 3.92275 6.64644 -4.12704
366 2 4.44329 6.55424 6.64644 -4.12706
24 1 5.73344 2.43304 14.5279 -6.40125
25 1 4.32872 4.86606 16.2184 -6.27508
26 1 5.73344 12.1652 14.5279 -6.40126
27 1 5.73344 7.2991 14.5279 -6.40126
28 1 4.32872 9.73212 16.2184 -6.40643
29 1 1.51928 4.86606 14.5279 -6.40124
30 1 0.114574 2.43304 16.2184 -6.37187
31 1 1.51928 0 14.5279 -6.40125
32 1 0.114574 12.1652 16.2184 -6.35329
33 1 1.51928 9.73212 14.5279 -6.40124
34 1 0.114574 7.2991 16.2184 -6.35457
35 1 4.32872 0 16.2184 -6.34045
36 1 2.92401 12.1652 10.1646 -6.40196
37 1 2.92401 7.2991 10.1646 -6.40195
38 1 1.51929 9.73212 11.855 -6.4021
39 1 7.13816 4.86606 10.1646 -6.40194
40 1 5.73344 2.43304 11.855 -6.40212
41 1 7.13816 0 10.1646 -6.40195
42 1 5.73344 12.1652 11.855 -6.40212
43 1 7.13816 9.73214 10.1646 -6.40194
44 1 5.73344 7.2991 11.855 -6.40212
45 1 2.92401 2.43304 10.1646 -6.40195
46 1 1.51929 0 11.855 -6.40212
47 1 1.51929 4.86606 11.855 -6.4021
48 1 4.32872 0 12.3462 -6.40196
49 1 2.92401 2.43304 14.0367 -6.38416
50 1 7.13816 0 14.0367 -6.38415
51 1 0.114574 7.2991 12.3462 -6.40197
52 1 0.114574 2.43304 12.3462 -6.40196
53 1 7.13816 4.86606 14.0367 -6.38415
54 1 4.32872 4.86606 12.3462 -6.40196
55 1 2.92401 7.2991 14.0367 -6.38417
56 1 0.114574 12.1652 12.3462 -6.40197
57 1 4.32872 9.73212 12.3462 -6.40196
58 1 7.13816 9.73214 14.0367 -6.38415
59 1 2.92401 12.1652 14.0367 -6.38418
85 1 0.114574 12.1652 9.67335 -6.40208
86 1 4.32872 9.73212 9.67335 -6.40207
89 1 0.114574 7.2991 9.67335 -6.40207
90 1 4.32872 4.86606 9.67335 -6.40207
93 1 0.114574 2.43304 9.67335 -6.40207
95 1 4.32872 0 9.67335 -6.40207
277 2 5.84801 4.1212 15.3731 -4.12743
278 2 7.13816 1.48973 15.3731 -4.12743
279 2 4.21415 1.68818 15.3731 -4.12744
280 2 5.84801 13.8533 15.3731 -4.12743
281 2 7.13816 11.2219 15.3731 -4.12743
282 2 4.21415 11.4203 15.3731 -4.12745
283 2 5.84801 8.98727 15.3731 -4.12743
284 2 7.13816 6.35579 15.3731 -4.12744
285 2 4.21415 6.55424 15.3731 -4.12745
286 2 0 4.1212 15.3731 -4.12742
287 2 2.92401 3.92275 15.3731 -4.12744
288 2 1.63386 6.55424 15.3731 -4.12744
289 2 1.63386 1.68816 15.3731 -4.12743
290 2 0 13.8533 15.3731 -4.12744
291 2 2.92401 13.6549 15.3731 -4.12745
292 2 0 8.98727 15.3731 -4.12744
293 2 2.92401 8.78882 15.3731 -4.12744
294 2 1.63386 11.4203 15.3731 -4.12744
295 2 3.03858 13.8533 11.0098 -4.12708
296 2 1.40472 11.4203 11.0098 -4.12708
297 2 4.32872 11.2219 11.0098 -4.12709
298 2 3.03858 8.98727 11.0098 -4.12707
299 2 1.40472 6.55424 11.0098 -4.12709
300 2 4.32872 6.35579 11.0098 -4.12709
301 2 5.61887 4.1212 11.0098 -4.12707
302 2 0.114574 3.92275 11.0098 -4.12708
303 2 7.25273 6.55424 11.0098 -4.12709
304 2 0.114574 13.6549 11.0098 -4.12709
305 2 5.61887 13.8533 11.0098 -4.12707
306 2 7.25273 1.68818 11.0098 -4.12709
307 2 7.25273 11.4203 11.0098 -4.12707
308 2 5.61887 8.98727 11.0098 -4.12708
309 2 0.114574 8.78882 11.0098 -4.12709
310 2 3.03858 4.1212 11.0098 -4.12707
311 2 4.32872 1.48973 11.0098 -4.12708
312 2 1.40472 1.68816 11.0098 -4.12708
313 2 5.73344 0.943306 13.1914 -4.12709
314 2 2.80944 0.744873 13.1914 -4.12708
315 2 4.44329 12.91 13.1914 -4.1271
316 2 0.22914 5.61093 13.1914 -4.12709
317 2 7.02359 8.04396 13.1914 -4.12709
318 2 1.51929 8.24241 13.1914 -4.12708
319 2 0.22914 0.744873 13.1914 -4.12709
320 2 7.02359 3.1779 13.1914 -4.12708
321 2 1.51929 3.37635 13.1914 -4.12708
322 2 4.44329 3.1779 13.1914 -4.12709
323 2 5.73344 5.80937 13.1914 -4.1271
324 2 2.80944 5.61093 13.1914 -4.12709
325 2 0.22914 10.477 13.1914 -4.12709
326 2 7.02359 12.91 13.1914 -4.12709
327 2 1.51929 13.1085 13.1914 -4.12709
328 2 4.44329 8.04396 13.1914 -4.12709
329 2 5.73344 10.6754 13.1914 -4.12709
330 2 2.80944 10.477 13.1914 -4.12709
367 2 5.84801 10.477 8.8281 -4.12712
368 2 7.13816 13.1085 8.8281 -4.12713
369 2 0 10.477 8.8281 -4.12713
370 2 1.63386 12.91 8.8281 -4.12713
371 2 4.21415 8.04396 8.8281 -4.12713
372 2 5.84801 5.61093 8.8281 -4.12712
373 2 7.13816 8.24241 8.8281 -4.12713
374 2 1.63386 8.04396 8.8281 -4.12711
375 2 2.92401 10.6754 8.8281 -4.12713
376 2 4.21415 3.1779 8.8281 -4.12712
377 2 5.84801 0.744873 8.8281 -4.12712
378 2 7.13816 3.37635 8.8281 -4.12712
379 2 1.63386 3.1779 8.8281 -4.12711
380 2 2.92401 5.80937 8.8281 -4.12713
381 2 2.92401 0.943306 8.8281 -4.12713
382 2 4.21415 12.91 8.8281 -4.12713
383 2 0 0.744859 8.8281 -4.12713
384 2 0 5.61092 8.8281 -4.12714
1 1 5.61888 0.980371 23.812 -3.0398
2 1 0 0.980371 23.812 -2.94168
3 1 7.13816 9.73214 19.0018 -5.62953
4 1 1.39838 9.70574 20.9212 -3.87697
5 1 2.92401 12.1652 19.0018 -6.0858
6 1 1.41756 3.84877 20.8934 -2.61296
7 1 3.91282 4.97191 21.1322 -4.53428
8 1 7.13816 4.86606 19.0018 -4.62643
9 1 4.32872 4.86606 18.5106 -7.78525
10 1 2.92401 7.2991 16.7095 -6.5223
11 1 4.32872 9.73212 18.5106 -3.03497
12 1 2.92401 12.1652 16.7095 -6.45939
13 1 0.114574 12.1652 18.5106 -5.53535
14 1 2.44882 12.9382 21.3051 -4.78597
15 1 0.114574 7.2991 18.5106 -4.9655
16 1 7.13816 9.73214 16.7095 -6.49258
17 1 0.114574 2.43304 18.5106 -4.33777
18 1 7.13816 4.86606 16.7095 -6.47579
19 1 4.32872 0 18.5106 -5.59508
20 1 2.92401 2.43304 16.7095 -6.43038
21 1 7.13816 0 16.7095 -6.54157
22 1 2.47033 0.919668 20.818 -3.51065
23 1 5.6662 3.15697 21.255 -2.4133
102 1 2.92401 2.43304 19.0018 -5.78036
103 1 2.92401 7.2991 19.0018 -3.95393
104 1 7.13816 0 19.0018 -3.67049
105 1 2.26377 7.08583 21.5757 -2.45164
106 1 2.80944 0.980371 23.812 -3.1004
107 1 1.40472 3.41341 23.8235 -3.12589
108 1 4.69798 9.12216 21.4053 -1.87702
109 1 2.80944 5.84643 23.8348 -3.25592
110 1 7.0236 3.41341 23.8235 -3.13352
111 1 5.61888 5.84643 23.8348 -2.97421
112 1 0 5.84643 23.8348 -3.04585
113 1 4.21416 3.41341 23.8235 -3.17579
126 1 7.0236 8.27947 23.8462 -3.04204
127 1 1.40472 8.27947 23.8462 -3.25811
128 1 5.61888 10.7125 23.8576 -3.16395
129 1 0 10.7125 23.8576 -3.01964
130 1 4.21416 8.27947 23.8462 -3.34969
131 1 2.80944 10.7125 23.8576 -3.11727
133 1 4.21416 13.1455 23.869 -3.0586
135 1 7.0236 13.1455 23.869 -2.95851
137 1 1.40472 13.1455 23.869 -3.10847
249 2 8.0685 10.4026 20.5879 -1.879
250 2 4.04476 12.1302 20.4881 -2.05195
251 2 0.347736 4.11775 19.3359 -2.52917
252 2 5.65325 4.19318 19.6581 -3.15092
253 2 4.37141 6.27585 19.7075 -3.19248
254 2 2.62598 4.49193 19.398 -3.56052
255 2 3.97856 3.2991 20.2963 -2.71288
256 2 4.32872 3.37635 17.5548 -4.34441
257 2 3.03858 5.61093 17.5548 -3.83822
258 2 5.61887 5.61093 17.5548 -3.74381
259 2 4.32872 8.24241 17.5548 -3.38655
260 2 3.03858 10.477 17.5548 -3.26274
261 2 5.61887 10.477 17.5548 -2.93052
262 2 1.40472 12.91 17.5548 -4.0626
263 2 7.25273 12.91 17.5548 -3.75653
264 2 0.114574 10.6754 17.5548 -3.662
265 2 1.47582 11.4559 19.8955 -3.25929
266 2 0.114574 5.80937 17.5548 -3.51986
267 2 1.40472 8.04397 17.5548 -3.42962
268 2 7.25273 8.04397 17.5548 -4.03914
269 2 1.40472 3.1779 17.5548 -3.65353
270 2 7.25273 3.1779 17.5548 -3.78381
271 2 0.114574 0.943306 17.5548 -3.62149
272 2 4.32872 13.1085 17.5548 -3.86645
273 2 3.03858 0.744873 17.5548 -3.71682
274 2 5.61887 0.744873 17.5548 -3.50954
275 2 4.28261 1.40283 19.6499 -2.79058
276 2 2.71229 -0.658674 19.6099 -4.19654
385 2 0.508102 9.10377 19.1911 -3.46862
386 2 3.80109 14.3293 21.5003 -2.00978
387 2 8.78958 13.8135 19.4234 -2.2761
388 2 7.30043 8.02862 19.929 -1.65043
114 1 7.0236 5.02485 26.1582 -3.4106
115 1 1.40472 5.02485 26.1582 -3.40514
116 1 5.61888 7.45787 26.1696 -3.40878
117 1 0 7.45787 26.1696 -3.40895
118 1 4.21416 5.02485 26.1582 -3.40282
119 1 2.80944 7.45787 26.1696 -3.37961
120 1 7.0236 9.89091 26.181 -3.42481
121 1 1.40472 9.89091 26.181 -3.40831
122 1 5.61888 12.3239 26.1924 -3.41619
123 1 0 12.3239 26.1924 -3.41634
124 1 4.21416 9.89091 26.181 -3.40045
125 1 2.80944 12.3239 26.1924 -3.41341
132 1 4.21416 0.158785 26.1354 -3.40529
134 1 7.0236 0.158785 26.1354 -3.42479
136 1 1.40472 0.158785 26.1354 -3.40926
138 1 5.61888 2.59181 26.1468 -3.41881
139 1 0 2.59181 26.1468 -3.41587
140 1 2.80944 2.59181 26.1468 -3.39616
141 1 5.61888 5.81468 30.8164 -3.35104
142 1 0 5.81468 30.8164 -3.35104
143 1 7.0236 8.24771 30.8277 -3.35103
144 1 1.40472 8.24771 30.8277 -3.35103
145 1 4.21416 8.24771 30.8277 -3.35103
146 1 2.80944 5.81468 30.8164 -3.35104
147 1 7.0236 1.77021 28.4702 -3.35207
148 1 1.40472 1.77021 28.4702 -3.35207
149 1 4.21416 1.77021 28.4702 -3.35207
150 1 7.0236 6.63627 28.493 -3.35105
151 1 1.40472 6.63627 28.493 -3.35104
152 1 5.61888 4.20324 28.4816 -3.35108
153 1 0 4.20324 28.4816 -3.35108
154 1 4.21416 6.63627 28.493 -3.35104
155 1 2.80944 4.20324 28.4816 -3.35108
156 1 5.61888 9.06931 28.5044 -3.35104
157 1 0 9.06931 28.5044 -3.35104
158 1 7.0236 11.5023 28.5158 -3.35223
159 1 1.40472 11.5023 28.5158 -3.35223
160 1 4.21416 11.5023 28.5158 -3.35223
161 1 2.80944 9.06931 28.5044 -3.35104
162 1 2.80944 0.94862 30.7936 -3.3559
163 1 2.80944 13.9354 28.5271 -3.34153
164 1 0 0.94862 30.7936 -3.3559
165 1 0 13.9354 28.5271 -3.34154
166 1 5.61888 0.94862 30.7936 -3.3559
167 1 5.61888 13.9354 28.5271 -3.34153
168 1 7.0236 3.38164 30.805 -3.34972
169 1 1.40472 3.38164 30.805 -3.34972
170 1 4.21416 3.38164 30.805 -3.34972
181 1 4.21416 13.1138 30.8505 -3.35589
182 1 5.61888 10.6807 30.8392 -3.34972
183 1 0 10.6807 30.8392 -3.34973
185 1 7.0236 13.1138 30.8505 -3.3559
187 1 1.40472 13.1138 30.8505 -3.35589
188 1 2.80944 10.6807 30.8392 -3.34972
171 1 5.61888 7.42612 33.1512 -3.35104
172 1 0 7.42612 33.1512 -3.35104
173 1 7.0236 9.85914 33.1626 -3.35108
174 1 1.40472 9.85914 33.1626 -3.35108
175 1 4.21416 9.85914 33.1626 -3.35108
176 1 2.80944 7.42612 33.1512 -3.35104
177 1 5.61888 12.2922 33.1739 -3.35206
178 1 0 12.2922 33.1739 -3.35206
179 1 2.80944 12.2922 33.1739 -3.35206
180 1 4.21416 0.127019 33.117 -3.34154
184 1 7.0236 0.127019 33.117 -3.34154
186 1 1.40472 0.127019 33.117 -3.34154
189 1 5.61888 2.56006 33.1284 -3.35222
190 1 0 2.56006 33.1284 -3.35222
191 1 7.0236 4.99308 33.1397 -3.35105
192 1 1.40472 4.99308 33.1397 -3.35104
193 1 4.21416 4.99308 33.1397 -3.35104
194 1 2.80944 2.56006 33.1284 -3.35222
195 1 5.61888 12.2604 40.1555 -2.97112
196 1 0 12.2604 40.1555 -2.97112
197 1 2.80944 12.2604 40.1555 -2.97111
198 1 7.0236 9.82739 40.1441 -2.97446
199 1 1.40472 9.82739 40.1441 -2.97446
200 1 4.21416 9.82739 40.1441 -2.97446
201 1 5.61888 5.78293 37.7979 -3.43976
202 1 0 5.78293 37.7979 -3.43976
203 1 7.0236 8.21595 37.8093 -3.43975
204 1 1.40472 8.21595 37.8093 -3.43975
205 1 4.21416 8.21595 37.8093 -3.43975
206 1 2.80944 5.78293 37.7979 -3.43976
207 1 4.21416 0.095268 40.0985 -2.9788
208 1 4.21416 13.082 37.8321 -3.44396
209 1 5.61888 2.52829 40.11 -2.97213
210 1 0 2.52829 40.11 -2.97213
211 1 5.61888 10.649 37.8207 -3.43844
212 1 0 10.649 37.8207 -3.43844
213 1 7.0236 0.095268 40.0985 -2.97881
214 1 7.0236 13.082 37.8321 -3.44396
215 1 1.40472 0.095268 40.0985 -2.97881
216 1 1.40472 13.082 37.8321 -3.44396
217 1 2.80944 2.52829 40.11 -2.97213
218 1 2.80944 10.649 37.8207 -3.43844
219 1 7.0236 4.96133 40.1213 -2.97443
220 1 1.40472 4.96133 40.1213 -2.97443
221 1 5.61888 7.39435 40.1327 -2.97441
222 1 0 7.39435 40.1327 -2.97442
223 1 4.21416 4.96133 40.1213 -2.97442
224 1 2.80944 7.39435 40.1327 -2.97441
225 1 5.61888 9.03756 35.4859 -3.35104
226 1 0 9.03756 35.4859 -3.35105
227 1 7.0236 11.4706 35.4973 -3.35223
228 1 1.40472 11.4706 35.4973 -3.35223
229 1 4.21416 11.4706 35.4973 -3.35223
230 1 2.80944 9.03756 35.4859 -3.35104
231 1 2.80944 0.916869 37.7751 -3.4418
232 1 2.80944 13.9036 35.5087 -3.34154
233 1 0 0.916869 37.7751 -3.44181
234 1 0 13.9036 35.5087 -3.34155
235 1 5.61888 0.916869 37.7751 -3.4418
236 1 5.61888 13.9036 35.5087 -3.34154
237 1 7.0236 3.34989 37.7865 -3.43844
238 1 1.40472 3.34989 37.7865 -3.43843
239 1 4.21416 3.34989 37.7865 -3.43843
240 1 7.0236 1.73846 35.4518 -3.35208
241 1 1.40472 1.73846 35.4518 -3.35207
242 1 4.21416 1.73846 35.4518 -3.35207
243 1 7.0236 6.60452 35.4745 -3.35104
244 1 1.40472 6.60452 35.4745 -3.35104
245 1 5.61888 4.17149 35.4632 -3.35108
246 1 0 4.17149 35.4632 -3.35108
247 1 4.21416 6.60452 35.4745 -3.35104
248 1 2.80944 4.17149 35.4632 -3.35108
