ITEM: TIMESTEP
1228
ITEM: NUMBER OF ATOMS
14
ITEM: BOX BOUNDS ff ff ff
0.0000000000000000e+00 1.8000000000000000e+01
0.0000000000000000e+00 1.8000000000000000e+01
0.0000000000000000e+00 1.8000000000000000e+01
ITEM: ATOMS id type x y z c_peatom
1 1 8.35709 7.11474 7.21144 -5.03898
7 2 8.23751 8.73076 6.3726 -3.62119
8 2 8.87467 8.09058 8.88206 -5.05038
3 1 10.8494 7.92207 8.41 -5.8226
10 2 10.1073 6.86502 6.87479 -3.44236
2 1 9.00534 9.86368 7.70057 -5.50411
9 2 10.7767 9.46978 7.46503 -3.81785
4 1 8.9917 6.95142 10.4452 -3.4477
13 2 8.51345 8.43366 11.3882 -4.59016
11 2 11.6102 8.88128 9.92551 -3.15789
6 1 7.39007 9.1064 9.98235 -4.29158
14 2 8.58721 10.4796 9.64403 -4.01953
5 1 10.0389 9.59745 10.6765 -6.9597
12 2 10.4977 10.747 11.8661 -2.75284
