LAMMPS (30 Nov 2020)
  using 1 OpenMP thread(s) per MPI task
Reading data file ...
  orthogonal box = (0.0000000 0.0000000 0.0000000) to (18.000000 18.000000 18.000000)
  1 by 1 by 2 MPI processor grid
  reading atoms ...
  15 atoms
  read_data CPU = 0.002 seconds
Reading tersoff/zbl potential file /sandbox/vkolluru/Fantastx/examples/TiO2_clusters/Ti-O.tersoff.zbl with DATE: 2018-05-16
WARNING: Using 'neigh_modify every 1 delay 0 check yes' setting during minimization (../min.cpp:188)
Neighbor list info ...
  update every 1 steps, delay 0 steps, check yes
  max neighbors/atom: 1000, page size: 100000
  master list distance cutoff = 5.35
  ghost atom cutoff = 5.35
  binsize = 2.675, bins = 7 7 7
  1 neighbor lists, perpetual/occasional/extra = 1 0 0
  (1) pair tersoff/zbl, perpetual
      attributes: full, newton on
      pair build: full/bin/atomonly
      stencil: full/bin/3d
      bin: standard
Setting up cg style minimization ...
  Unit style    : metal
  Current step  : 0
Per MPI rank memory allocation (min/avg/max) = 4.421 | 4.421 | 4.421 Mbytes
Step Temp E_pair E_mol TotEng Press 
       0            0    -26.50577            0    -26.50577    14867.802 
       1            0   -34.992268            0   -34.992268    11204.553 
Loop time of 0.000197669 on 2 procs for 1 steps with 15 atoms

93.6% CPU use with 2 MPI tasks x 1 OpenMP threads

Minimization stats:
  Stopping criterion = max force evaluations
  Energy initial, next-to-last, final = 
     -26.5057702146665  -26.5057702146665  -34.9922679186898
  Force two-norm initial, final = 57.502189 36.965368
  Force max component initial, final = 30.024037 15.161646
  Final line search alpha, max atom move = 0.0033306647 0.050498361
  Iterations, force evaluations = 1 1

MPI task timing breakdown:
Section |  min time  |  avg time  |  max time  |%varavg| %total
---------------------------------------------------------------
Pair    | 5.3279e-05 | 8.7636e-05 | 0.00012199 |   0.0 | 44.33
Neigh   | 0          | 0          | 0          |   0.0 |  0.00
Comm    | 1.5333e-05 | 5.0036e-05 | 8.4739e-05 |   0.0 | 25.31
Output  | 0          | 0          | 0          |   0.0 |  0.00
Modify  | 0          | 0          | 0          |   0.0 |  0.00
Other   |            | 6e-05      |            |       | 30.35

Nlocal:        7.50000 ave           9 max           6 min
Histogram: 1 0 0 0 0 0 0 0 0 1
Nghost:        7.50000 ave           9 max           6 min
Histogram: 1 0 0 0 0 0 0 0 0 1
Neighs:         0.00000 ave           0 max           0 min
Histogram: 2 0 0 0 0 0 0 0 0 0
FullNghs:      101.000 ave         121 max          81 min
Histogram: 1 0 0 0 0 0 0 0 0 1

Total # of neighbors = 202
Ave neighs/atom = 13.466667
Neighbor list builds = 0
Dangerous builds = 0
WARNING: Using 'neigh_modify every 1 delay 0 check yes' setting during minimization (../min.cpp:188)
Setting up cg style minimization ...
  Unit style    : metal
  Current step  : 1
Per MPI rank memory allocation (min/avg/max) = 4.421 | 4.421 | 4.421 Mbytes
Step Temp E_pair E_mol TotEng Press 
       1            0   -34.992268            0   -34.992268    11204.553 
     916            0    -64.23418            0    -64.23418   0.26527333 
Loop time of 0.150304 on 2 procs for 915 steps with 15 atoms

98.5% CPU use with 2 MPI tasks x 1 OpenMP threads

Minimization stats:
  Stopping criterion = force tolerance
  Energy initial, next-to-last, final = 
     -34.9922679186899  -64.2341802659951  -64.2341802739923
  Force two-norm initial, final = 36.965368 0.00097249099
  Force max component initial, final = 15.161646 0.00029290374
  Final line search alpha, max atom move = 1.0000000 0.00029290374
  Iterations, force evaluations = 915 2971

MPI task timing breakdown:
Section |  min time  |  avg time  |  max time  |%varavg| %total
---------------------------------------------------------------
Pair    | 0.069653   | 0.10274    | 0.13583    |  10.3 | 68.36
Neigh   | 1.5669e-05 | 1.73e-05   | 1.8932e-05 |   0.0 |  0.01
Comm    | 0.0049301  | 0.038593   | 0.072256   |  17.1 | 25.68
Output  | 0          | 0          | 0          |   0.0 |  0.00
Modify  | 0          | 0          | 0          |   0.0 |  0.00
Other   |            | 0.008951   |            |       |  5.96

Nlocal:        7.50000 ave           9 max           6 min
Histogram: 1 0 0 0 0 0 0 0 0 1
Nghost:        7.50000 ave           9 max           6 min
Histogram: 1 0 0 0 0 0 0 0 0 1
Neighs:         0.00000 ave           0 max           0 min
Histogram: 2 0 0 0 0 0 0 0 0 0
FullNghs:      96.0000 ave         112 max          80 min
Histogram: 1 0 0 0 0 0 0 0 0 1

Total # of neighbors = 192
Ave neighs/atom = 12.800000
Neighbor list builds = 3
Dangerous builds = 0
WARNING: Using 'neigh_modify every 1 delay 0 check yes' setting during minimization (../min.cpp:188)
Setting up cg style minimization ...
  Unit style    : metal
  Current step  : 916
Per MPI rank memory allocation (min/avg/max) = 4.421 | 4.421 | 4.421 Mbytes
Step Temp E_pair E_mol TotEng Press 
     916            0    -64.23418            0    -64.23418   0.26527333 
     979            0   -64.234183            0   -64.234183 0.0052797132 
Loop time of 0.00666682 on 2 procs for 63 steps with 15 atoms

89.8% CPU use with 2 MPI tasks x 1 OpenMP threads

Minimization stats:
  Stopping criterion = force tolerance
  Energy initial, next-to-last, final = 
     -64.2341802739923  -64.2341825420556  -64.2341825423352
  Force two-norm initial, final = 0.00097249099 7.9933636e-05
  Force max component initial, final = 0.00029290374 3.4154089e-05
  Final line search alpha, max atom move = 1.0000000 3.4154089e-05
  Iterations, force evaluations = 63 126

MPI task timing breakdown:
Section |  min time  |  avg time  |  max time  |%varavg| %total
---------------------------------------------------------------
Pair    | 0.0044127  | 0.0044491  | 0.0044854  |   0.1 | 66.73
Neigh   | 0          | 0          | 0          |   0.0 |  0.00
Comm    | 0.00021042 | 0.00025834 | 0.00030626 |   0.0 |  3.88
Output  | 0          | 0          | 0          |   0.0 |  0.00
Modify  | 0          | 0          | 0          |   0.0 |  0.00
Other   |            | 0.001959   |            |       | 29.39

Nlocal:        7.50000 ave           8 max           7 min
Histogram: 1 0 0 0 0 0 0 0 0 1
Nghost:        7.50000 ave           8 max           7 min
Histogram: 1 0 0 0 0 0 0 0 0 1
Neighs:         0.00000 ave           0 max           0 min
Histogram: 2 0 0 0 0 0 0 0 0 0
FullNghs:      96.0000 ave          98 max          94 min
Histogram: 1 0 0 0 0 0 0 0 0 1

Total # of neighbors = 192
Ave neighs/atom = 12.800000
Neighbor list builds = 0
Dangerous builds = 0
Total wall time: 0:00:00
