ITEM: TIMESTEP
1021
ITEM: NUMBER OF ATOMS
18
ITEM: BOX BOUNDS ff ff ff
0.0000000000000000e+00 1.8000000000000000e+01
0.0000000000000000e+00 1.8000000000000000e+01
0.0000000000000000e+00 1.8000000000000000e+01
ITEM: ATOMS id type x y z c_peatom
1 1 6.0983 8.69352 8.12876 -5.12794
2 1 8.62624 7.32019 8.27858 -5.82471
8 2 6.69231 6.97601 8.28229 -3.48043
3 1 11.5739 8.2323 7.89665 -6.85597
9 2 11.2034 7.79538 6.27791 -2.72752
10 2 10.6035 6.68902 8.64124 -3.4345
11 2 7.99638 9.20123 8.14147 -4.33239
4 1 9.5641 10.6189 8.02307 -4.89873
12 2 11.4443 10.2313 8.10797 -3.56459
13 2 8.45683 7.44121 10.1729 -3.91444
5 1 10.474 7.3403 10.5724 -5.98948
14 2 10.792 8.86952 11.6919 -3.37003
15 2 10.0026 8.83123 9.18955 -4.28695
16 2 12.1097 8.27844 9.90656 -3.45495
6 1 8.01224 9.36629 10.1182 -5.79471
17 2 6.11969 9.12844 9.8976 -3.59609
7 1 11.2183 10.0484 10.2808 -5.92648
18 2 9.415 10.9497 9.84164 -3.85029
