ITEM: TIMESTEP
455
ITEM: NUMBER OF ATOMS
18
ITEM: BOX BOUNDS ff ff ff
0.0000000000000000e+00 1.8000000000000000e+01
0.0000000000000000e+00 1.8000000000000000e+01
0.0000000000000000e+00 1.8000000000000000e+01
ITEM: ATOMS id type x y z c_peatom 
8 2 10.6606 9.00554 5.89109 -3.46505 
1 1 8.89795 8.73212 6.22314 -5.14651 
2 1 11.333 8.70762 7.70977 -5.64122 
9 2 9.5177 8.23816 8.05071 -4.00343 
3 1 8.83333 10.0449 8.78479 -7.67808 
10 2 8.63103 10.4052 6.86954 -3.44002 
12 2 6.86978 9.92618 8.57503 -3.52633 
11 2 10.9116 10.3983 8.21115 -3.51407 
14 2 8.42593 8.40469 10.0631 -3.96673 
6 1 10.0962 7.31471 10.022 -5.2471 
15 2 11.5518 8.47024 9.75379 -3.82312 
18 2 10.0553 7.57463 11.8493 -3.55506 
5 1 8.87434 9.04551 11.8955 -5.78694 
4 1 6.55116 9.32327 10.2172 -4.82337 
13 2 7.83997 10.4945 10.8013 -3.54928 
7 1 11.1065 10.3288 10.3684 -5.78006 
16 2 9.70911 11.4435 9.8588 -3.26659 
17 2 10.3663 10.1272 12.0716 -3.55354 
