ITEM: TIMESTEP
64
ITEM: NUMBER OF ATOMS
387
ITEM: BOX BOUNDS pp pp pp
0.0000000000000000e+00 8.4283000000000001e+00
0.0000000000000000e+00 1.4598200000000000e+01
0.0000000000000000e+00 4.9476269000000002e+01
ITEM: ATOMS id type x y z c_peatom
52 1 2.92401 12.1652 3.61953 -2.2941
53 1 7.13816 4.86606 3.61953 -2.29409
54 1 5.73344 7.2991 5.31004 -6.5982
55 1 7.13816 9.73214 3.61953 -2.29409
56 1 5.73344 12.1652 5.31004 -6.5982
57 1 7.13816 0 3.61953 -2.29408
58 1 5.73344 2.43304 5.31004 -6.5982
59 1 2.92401 7.2991 3.61953 -2.29408
60 1 1.51929 9.73212 5.31004 -6.59819
61 1 2.92401 2.43304 3.61953 -2.29408
62 1 1.51929 4.86606 5.31004 -6.5982
63 1 1.51929 0 5.31004 -6.59819
64 1 0.114574 7.2991 5.80124 -6.54405
65 1 4.32872 9.73212 5.80124 -6.54404
66 1 2.92401 7.2991 7.4917 -6.40207
67 1 0.114574 12.1652 5.80124 -6.54405
68 1 7.13816 9.73214 7.4917 -6.40206
69 1 4.32872 0 5.80124 -6.54405
70 1 2.92401 12.1652 7.4917 -6.40208
71 1 0.114574 2.43304 5.80124 -6.54404
72 1 7.13816 0 7.4917 -6.40207
73 1 4.32872 4.86606 5.80124 -6.54403
74 1 2.92401 2.43304 7.4917 -6.40207
75 1 7.13816 4.86606 7.4917 -6.40206
76 1 5.73344 12.1652 7.98285 -6.40205
79 1 5.73344 7.2991 7.98285 -6.40204
80 1 1.51929 9.73212 7.98285 -6.40204
83 1 5.73344 2.43304 7.98285 -6.40204
84 1 1.51929 4.86606 7.98285 -6.40204
86 1 1.51929 0 7.98285 -6.40204
88 1 4.32872 9.73212 3.12833 -3.27315
89 1 4.32872 4.86606 3.12833 -3.27316
90 1 0.114574 12.1652 3.12833 -3.27315
91 1 0.114574 2.43304 3.12833 -3.27315
92 1 0.114574 7.2991 3.12833 -3.27315
93 1 4.32872 0 3.12833 -3.27314
321 2 3.03858 10.477 4.46474 -3.32409
322 2 1.40472 12.91 4.46474 -3.32409
323 2 4.32872 13.1085 4.46474 -3.32408
324 2 7.25273 3.1779 4.46474 -3.32408
325 2 0.114574 5.80937 4.46474 -3.32409
326 2 5.61887 5.61093 4.46474 -3.32408
327 2 0.114574 10.6754 4.46474 -3.32409
328 2 5.61887 10.477 4.46474 -3.32408
329 2 7.25273 8.04396 4.46474 -3.32409
330 2 0.114574 0.943306 4.46474 -3.32409
331 2 5.61887 0.744873 4.46474 -3.32408
332 2 7.25273 12.91 4.46474 -3.32408
333 2 1.40472 8.04396 4.46474 -3.32407
334 2 4.32872 8.24241 4.46474 -3.32408
335 2 3.03858 5.61092 4.46474 -3.32409
336 2 1.40472 3.1779 4.46474 -3.32408
337 2 4.32872 3.37635 4.46474 -3.32409
338 2 3.03858 0.744859 4.46474 -3.32408
339 2 0.22914 8.98727 6.64644 -4.12705
340 2 7.02359 6.55424 6.64644 -4.12705
341 2 1.51929 6.35579 6.64644 -4.12705
342 2 5.73344 8.78883 6.64644 -4.12705
343 2 2.80944 8.98727 6.64644 -4.12704
344 2 4.44329 11.4203 6.64644 -4.12706
345 2 0.22914 13.8533 6.64644 -4.12706
346 2 7.02359 11.4203 6.64644 -4.12704
347 2 1.51929 11.2219 6.64644 -4.12706
348 2 4.44329 1.68816 6.64644 -4.12706
349 2 5.73344 13.6549 6.64644 -4.12705
350 2 2.80944 13.8533 6.64644 -4.12705
351 2 0.22914 4.1212 6.64644 -4.12705
352 2 1.51929 1.48973 6.64644 -4.12705
353 2 7.02359 1.68816 6.64644 -4.12705
354 2 2.80944 4.1212 6.64644 -4.12704
355 2 5.73344 3.92275 6.64644 -4.12704
356 2 4.44329 6.55424 6.64644 -4.12706
16 1 5.73344 2.43304 14.5279 -6.40125
17 1 4.32872 4.86606 16.2184 -6.27495
18 1 5.73344 12.1652 14.5279 -6.40126
19 1 5.73344 7.2991 14.5279 -6.40126
20 1 4.32872 9.73212 16.2184 -6.37495
21 1 1.51928 4.86606 14.5279 -6.40124
22 1 0.114574 2.43304 16.2184 -6.34202
23 1 1.51928 0 14.5279 -6.40125
24 1 0.114574 12.1652 16.2184 -6.36936
25 1 1.51928 9.73212 14.5279 -6.40124
26 1 0.114574 7.2991 16.2184 -6.40334
27 1 4.32872 0 16.2184 -6.39116
28 1 2.92401 12.1652 10.1646 -6.40196
29 1 2.92401 7.2991 10.1646 -6.40195
30 1 1.51929 9.73212 11.855 -6.4021
31 1 7.13816 4.86606 10.1646 -6.40194
32 1 5.73344 2.43304 11.855 -6.40212
33 1 7.13816 0 10.1646 -6.40195
34 1 5.73344 12.1652 11.855 -6.40212
35 1 7.13816 9.73214 10.1646 -6.40194
36 1 5.73344 7.2991 11.855 -6.40212
37 1 2.92401 2.43304 10.1646 -6.40195
38 1 1.51929 0 11.855 -6.40212
39 1 1.51929 4.86606 11.855 -6.4021
40 1 4.32872 0 12.3462 -6.40196
41 1 2.92401 2.43304 14.0367 -6.38416
42 1 7.13816 0 14.0367 -6.38415
43 1 0.114574 7.2991 12.3462 -6.40197
44 1 0.114574 2.43304 12.3462 -6.40196
45 1 7.13816 4.86606 14.0367 -6.38415
46 1 4.32872 4.86606 12.3462 -6.40196
47 1 2.92401 7.2991 14.0367 -6.38417
48 1 0.114574 12.1652 12.3462 -6.40197
49 1 4.32872 9.73212 12.3462 -6.40196
50 1 7.13816 9.73214 14.0367 -6.38415
51 1 2.92401 12.1652 14.0367 -6.38418
77 1 0.114574 12.1652 9.67335 -6.40208
78 1 4.32872 9.73212 9.67335 -6.40207
81 1 0.114574 7.2991 9.67335 -6.40207
82 1 4.32872 4.86606 9.67335 -6.40207
85 1 0.114574 2.43304 9.67335 -6.40207
87 1 4.32872 0 9.67335 -6.40207
267 2 5.84801 4.1212 15.3731 -4.12743
268 2 7.13816 1.48973 15.3731 -4.12743
269 2 4.21415 1.68818 15.3731 -4.12744
270 2 5.84801 13.8533 15.3731 -4.12743
271 2 7.13816 11.2219 15.3731 -4.12743
272 2 4.21415 11.4203 15.3731 -4.12745
273 2 5.84801 8.98727 15.3731 -4.12743
274 2 7.13816 6.35579 15.3731 -4.12744
275 2 4.21415 6.55424 15.3731 -4.12745
276 2 0 4.1212 15.3731 -4.12742
277 2 2.92401 3.92275 15.3731 -4.12744
278 2 1.63386 6.55424 15.3731 -4.12744
279 2 1.63386 1.68816 15.3731 -4.12743
280 2 0 13.8533 15.3731 -4.12744
281 2 2.92401 13.6549 15.3731 -4.12745
282 2 0 8.98727 15.3731 -4.12744
283 2 2.92401 8.78882 15.3731 -4.12744
284 2 1.63386 11.4203 15.3731 -4.12744
285 2 3.03858 13.8533 11.0098 -4.12708
286 2 1.40472 11.4203 11.0098 -4.12708
287 2 4.32872 11.2219 11.0098 -4.12709
288 2 3.03858 8.98727 11.0098 -4.12707
289 2 1.40472 6.55424 11.0098 -4.12709
290 2 4.32872 6.35579 11.0098 -4.12709
291 2 5.61887 4.1212 11.0098 -4.12707
292 2 0.114574 3.92275 11.0098 -4.12708
293 2 7.25273 6.55424 11.0098 -4.12709
294 2 0.114574 13.6549 11.0098 -4.12709
295 2 5.61887 13.8533 11.0098 -4.12707
296 2 7.25273 1.68818 11.0098 -4.12709
297 2 7.25273 11.4203 11.0098 -4.12707
298 2 5.61887 8.98727 11.0098 -4.12708
299 2 0.114574 8.78882 11.0098 -4.12709
300 2 3.03858 4.1212 11.0098 -4.12707
301 2 4.32872 1.48973 11.0098 -4.12708
302 2 1.40472 1.68816 11.0098 -4.12708
303 2 5.73344 0.943306 13.1914 -4.12709
304 2 2.80944 0.744873 13.1914 -4.12708
305 2 4.44329 12.91 13.1914 -4.1271
306 2 0.22914 5.61093 13.1914 -4.12709
307 2 7.02359 8.04396 13.1914 -4.12709
308 2 1.51929 8.24241 13.1914 -4.12708
309 2 0.22914 0.744873 13.1914 -4.12709
310 2 7.02359 3.1779 13.1914 -4.12708
311 2 1.51929 3.37635 13.1914 -4.12708
312 2 4.44329 3.1779 13.1914 -4.12709
313 2 5.73344 5.80937 13.1914 -4.1271
314 2 2.80944 5.61093 13.1914 -4.12709
315 2 0.22914 10.477 13.1914 -4.12709
316 2 7.02359 12.91 13.1914 -4.12709
317 2 1.51929 13.1085 13.1914 -4.12709
318 2 4.44329 8.04396 13.1914 -4.12709
319 2 5.73344 10.6754 13.1914 -4.12709
320 2 2.80944 10.477 13.1914 -4.12709
357 2 5.84801 10.477 8.8281 -4.12712
358 2 7.13816 13.1085 8.8281 -4.12713
359 2 0 10.477 8.8281 -4.12713
360 2 1.63386 12.91 8.8281 -4.12713
361 2 4.21415 8.04396 8.8281 -4.12713
362 2 5.84801 5.61093 8.8281 -4.12712
363 2 7.13816 8.24241 8.8281 -4.12713
364 2 1.63386 8.04396 8.8281 -4.12711
365 2 2.92401 10.6754 8.8281 -4.12713
366 2 4.21415 3.1779 8.8281 -4.12712
367 2 5.84801 0.744873 8.8281 -4.12712
368 2 7.13816 3.37635 8.8281 -4.12712
369 2 1.63386 3.1779 8.8281 -4.12711
370 2 2.92401 5.80937 8.8281 -4.12713
371 2 2.92401 0.943306 8.8281 -4.12713
372 2 4.21415 12.91 8.8281 -4.12713
373 2 0 0.744859 8.8281 -4.12713
374 2 0 5.61092 8.8281 -4.12714
1 1 2.9142 11.5063 21.301 -2.24111
2 1 0.203937 12.314 20.7726 -2.80623
3 1 2.92401 12.1652 19.0018 -5.39446
4 1 4.32872 4.86606 18.5106 -7.42963
5 1 2.92401 7.2991 16.7095 -6.47229
6 1 4.32872 9.73212 18.5106 -4.1438
7 1 2.92401 12.1652 16.7095 -6.49866
8 1 0.114574 12.1652 18.5106 -4.01847
9 1 0.114574 7.2991 18.5106 -3.16559
10 1 7.13816 9.73214 16.7095 -6.62393
11 1 0.114574 2.43304 18.5106 -5.46028
12 1 7.13816 4.86606 16.7095 -6.51024
13 1 4.32872 0 18.5106 -3.91375
14 1 2.92401 2.43304 16.7095 -6.42413
15 1 7.13816 0 16.7095 -6.61117
94 1 3.93388 5.31991 21.0741 -5.40441
95 1 2.92401 2.43304 19.0018 -6.35988
96 1 3.06755 2.23047 21.4778 -3.56289
97 1 7.13816 4.86606 19.0018 -4.87514
98 1 7.13816 9.73214 19.0018 -2.6999
99 1 2.92401 7.2991 19.0018 -5.02054
100 1 7.13816 0 19.0018 -2.46818
101 1 7.99251 7.31015 21.2191 -1.92028
102 1 5.61888 0.980371 23.812 -2.90418
103 1 0 0.980371 23.812 -3.00927
104 1 2.80944 0.980371 23.812 -3.13005
105 1 5.61888 5.84643 23.8348 -3.06419
106 1 0 5.84643 23.8348 -3.12714
107 1 7.0236 3.41341 23.8235 -3.20872
108 1 1.40472 3.41341 23.8235 -3.14724
109 1 4.21416 3.41341 23.8235 -3.1052
110 1 2.80944 5.84643 23.8348 -3.03775
111 1 5.61888 10.7125 23.8576 -2.93215
112 1 0 10.7125 23.8576 -2.976
113 1 7.0236 8.27947 23.8462 -3.3012
114 1 1.40472 8.27947 23.8462 -3.09362
115 1 4.21416 8.27947 23.8462 -3.12938
116 1 2.80944 10.7125 23.8576 -3.18642
118 1 4.21416 13.1455 23.869 -3.07816
120 1 1.40472 13.1455 23.869 -3.10685
122 1 7.0236 13.1455 23.869 -2.9593
246 1 0.383839 2.70666 21.1534 -3.45661
247 1 5.36233 7.66053 21.0557 -2.07726
248 2 1.59636 11.0107 19.7569 -2.63428
249 2 4.32872 3.37635 17.5548 -3.87555
250 2 3.03858 5.61093 17.5548 -3.98305
251 2 5.61887 5.61093 17.5548 -3.77369
252 2 4.32872 8.24241 17.5548 -3.46352
253 2 3.03858 10.477 17.5548 -3.82964
254 2 5.61887 10.477 17.5548 -3.36563
255 2 1.40472 12.91 17.5548 -3.56993
256 2 7.25273 12.91 17.5548 -3.39456
257 2 0.114574 10.6754 17.5548 -3.44741
258 2 0.114574 5.80937 17.5548 -3.53061
259 2 1.40472 8.04397 17.5548 -3.04951
260 2 7.25273 8.04397 17.5548 -3.24857
261 2 1.40472 3.1779 17.5548 -3.77873
262 2 7.25273 3.1779 17.5548 -3.85303
263 2 0.114574 0.943306 17.5548 -3.49015
264 2 4.32872 13.1085 17.5548 -3.619
265 2 3.03858 0.744873 17.5548 -3.78692
266 2 5.61887 0.744873 17.5548 -3.37851
375 2 5.54269 4.06627 19.8053 -2.73522
376 2 3.07801 3.73929 20.2177 -3.35759
377 2 1.59803 1.66389 19.962 -3.1833
378 2 4.34118 1.64094 19.8149 -2.65343
379 2 7.43527 10.8576 21.3931 -2.80204
380 2 0.28942 3.98061 19.6163 -2.82004
381 2 2.77516 5.47307 19.4768 -2.7369
382 2 4.29686 11.2259 19.679 -2.41356
383 2 6.9907 13.0913 21.22 -0.95168
384 2 2.32361 6.6967 21.0266 -1.39542
385 2 7.57191 3.97367 21.9727 -1.3564
386 2 6.24407 11.0391 21.2357 -2.39666
387 2 4.5659 6.47904 19.6367 -4.19769
117 1 4.21416 0.158785 26.1354 -3.40664
119 1 1.40472 0.158785 26.1354 -3.38929
121 1 7.0236 0.158785 26.1354 -3.41855
123 1 5.61888 2.59181 26.1468 -3.38134
124 1 0 2.59181 26.1468 -3.39205
125 1 2.80944 2.59181 26.1468 -3.40418
126 1 7.0236 5.02485 26.1582 -3.37231
127 1 1.40472 5.02485 26.1582 -3.393
128 1 5.61888 7.45787 26.1696 -3.41452
129 1 0 7.45787 26.1696 -3.4199
130 1 4.21416 5.02485 26.1582 -3.41041
131 1 2.80944 7.45787 26.1696 -3.40964
132 1 7.0236 9.89091 26.181 -3.41177
133 1 1.40472 9.89091 26.181 -3.40901
134 1 5.61888 12.3239 26.1924 -3.43216
135 1 0 12.3239 26.1924 -3.43195
136 1 4.21416 9.89091 26.181 -3.41297
137 1 2.80944 12.3239 26.1924 -3.41939
138 1 5.61888 5.81468 30.8164 -3.35104
139 1 0 5.81468 30.8164 -3.35104
140 1 7.0236 8.24771 30.8277 -3.35103
141 1 1.40472 8.24771 30.8277 -3.35103
142 1 4.21416 8.24771 30.8277 -3.35103
143 1 2.80944 5.81468 30.8164 -3.35104
144 1 7.0236 1.77021 28.4702 -3.35207
145 1 1.40472 1.77021 28.4702 -3.35207
146 1 4.21416 1.77021 28.4702 -3.35207
147 1 7.0236 6.63627 28.493 -3.35105
148 1 1.40472 6.63627 28.493 -3.35104
149 1 5.61888 4.20324 28.4816 -3.35108
150 1 0 4.20324 28.4816 -3.35108
151 1 4.21416 6.63627 28.493 -3.35104
152 1 2.80944 4.20324 28.4816 -3.35108
153 1 5.61888 9.06931 28.5044 -3.35104
154 1 0 9.06931 28.5044 -3.35104
155 1 7.0236 11.5023 28.5158 -3.35223
156 1 1.40472 11.5023 28.5158 -3.35223
157 1 4.21416 11.5023 28.5158 -3.35223
158 1 2.80944 9.06931 28.5044 -3.35104
159 1 2.80944 0.94862 30.7936 -3.3559
160 1 2.80944 13.9354 28.5271 -3.34153
161 1 0 0.94862 30.7936 -3.3559
162 1 0 13.9354 28.5271 -3.34154
163 1 5.61888 0.94862 30.7936 -3.3559
164 1 5.61888 13.9354 28.5271 -3.34153
165 1 7.0236 3.38164 30.805 -3.34972
166 1 1.40472 3.38164 30.805 -3.34972
167 1 4.21416 3.38164 30.805 -3.34972
178 1 4.21416 13.1138 30.8505 -3.35589
179 1 5.61888 10.6807 30.8392 -3.34972
180 1 0 10.6807 30.8392 -3.34973
182 1 7.0236 13.1138 30.8505 -3.3559
184 1 1.40472 13.1138 30.8505 -3.35589
185 1 2.80944 10.6807 30.8392 -3.34972
168 1 5.61888 7.42612 33.1512 -3.35104
169 1 0 7.42612 33.1512 -3.35104
170 1 7.0236 9.85914 33.1626 -3.35108
171 1 1.40472 9.85914 33.1626 -3.35108
172 1 4.21416 9.85914 33.1626 -3.35108
173 1 2.80944 7.42612 33.1512 -3.35104
174 1 5.61888 12.2922 33.1739 -3.35206
175 1 0 12.2922 33.1739 -3.35206
176 1 2.80944 12.2922 33.1739 -3.35206
177 1 4.21416 0.127019 33.117 -3.34154
181 1 7.0236 0.127019 33.117 -3.34154
183 1 1.40472 0.127019 33.117 -3.34154
186 1 5.61888 2.56006 33.1284 -3.35222
187 1 0 2.56006 33.1284 -3.35222
188 1 7.0236 4.99308 33.1397 -3.35105
189 1 1.40472 4.99308 33.1397 -3.35104
190 1 4.21416 4.99308 33.1397 -3.35104
191 1 2.80944 2.56006 33.1284 -3.35222
192 1 5.61888 12.2604 40.1555 -2.97112
193 1 0 12.2604 40.1555 -2.97112
194 1 2.80944 12.2604 40.1555 -2.97111
195 1 7.0236 9.82739 40.1441 -2.97446
196 1 1.40472 9.82739 40.1441 -2.97446
197 1 4.21416 9.82739 40.1441 -2.97446
198 1 5.61888 5.78293 37.7979 -3.43976
199 1 0 5.78293 37.7979 -3.43976
200 1 7.0236 8.21595 37.8093 -3.43975
201 1 1.40472 8.21595 37.8093 -3.43975
202 1 4.21416 8.21595 37.8093 -3.43975
203 1 2.80944 5.78293 37.7979 -3.43976
204 1 4.21416 0.095268 40.0985 -2.9788
205 1 4.21416 13.082 37.8321 -3.44396
206 1 5.61888 2.52829 40.11 -2.97213
207 1 0 2.52829 40.11 -2.97213
208 1 5.61888 10.649 37.8207 -3.43844
209 1 0 10.649 37.8207 -3.43844
210 1 7.0236 0.095268 40.0985 -2.97881
211 1 7.0236 13.082 37.8321 -3.44396
212 1 1.40472 0.095268 40.0985 -2.97881
213 1 1.40472 13.082 37.8321 -3.44396
214 1 2.80944 2.52829 40.11 -2.97213
215 1 2.80944 10.649 37.8207 -3.43844
216 1 7.0236 4.96133 40.1213 -2.97443
217 1 1.40472 4.96133 40.1213 -2.97443
218 1 5.61888 7.39435 40.1327 -2.97441
219 1 0 7.39435 40.1327 -2.97442
220 1 4.21416 4.96133 40.1213 -2.97442
221 1 2.80944 7.39435 40.1327 -2.97441
222 1 5.61888 9.03756 35.4859 -3.35104
223 1 0 9.03756 35.4859 -3.35105
224 1 7.0236 11.4706 35.4973 -3.35223
225 1 1.40472 11.4706 35.4973 -3.35223
226 1 4.21416 11.4706 35.4973 -3.35223
227 1 2.80944 9.03756 35.4859 -3.35104
228 1 2.80944 0.916869 37.7751 -3.4418
229 1 2.80944 13.9036 35.5087 -3.34154
230 1 0 0.916869 37.7751 -3.44181
231 1 0 13.9036 35.5087 -3.34155
232 1 5.61888 0.916869 37.7751 -3.4418
233 1 5.61888 13.9036 35.5087 -3.34154
234 1 7.0236 3.34989 37.7865 -3.43844
235 1 1.40472 3.34989 37.7865 -3.43843
236 1 4.21416 3.34989 37.7865 -3.43843
237 1 7.0236 1.73846 35.4518 -3.35208
238 1 1.40472 1.73846 35.4518 -3.35207
239 1 4.21416 1.73846 35.4518 -3.35207
240 1 7.0236 6.60452 35.4745 -3.35104
241 1 1.40472 6.60452 35.4745 -3.35104
242 1 5.61888 4.17149 35.4632 -3.35108
243 1 0 4.17149 35.4632 -3.35108
244 1 4.21416 6.60452 35.4745 -3.35104
245 1 2.80944 4.17149 35.4632 -3.35108
