ITEM: TIMESTEP
1272
ITEM: NUMBER OF ATOMS
15
ITEM: BOX BOUNDS ff ff ff
0.0000000000000000e+00 1.8000000000000000e+01
0.0000000000000000e+00 1.8000000000000000e+01
0.0000000000000000e+00 1.8000000000000000e+01
ITEM: ATOMS id type x y z c_peatom 
2 1 5.92498 8.38626 8.45154 -3.06542 
3 1 8.49967 8.63347 6.32252 -4.04 
7 2 9.83444 7.78847 6.14728 -3.93148 
13 2 12.3251 7.84596 7.34872 0 
15 2 11.852 9.95668 8.13094 -1.10253 
14 2 7.98534 12.2787 8.29806 -2.58128 
9 2 6.59915 7.53623 9.78501 -5.73035 
1 1 8.44752 7.62437 9.12485 -3.80613 
12 2 10.4697 8.14488 11.6441 -4.74058 
6 1 8.99604 7.42984 12.0373 -3.29218 
4 1 7.04731 9.13293 10.8004 -3.73583 
8 2 8.33586 9.41832 9.51269 -5.20397 
5 1 9.87877 9.70927 10.7601 -4.87213 
11 2 11.1194 9.5443 9.37332 -2.85167 
10 2 7.86732 12.2242 9.49933 -2.58128 
