ITEM: TIMESTEP
1076
ITEM: NUMBER OF ATOMS
16
ITEM: BOX BOUNDS ff ff ff
0.0000000000000000e+00 1.8000000000000000e+01
0.0000000000000000e+00 1.8000000000000000e+01
0.0000000000000000e+00 1.8000000000000000e+01
ITEM: ATOMS id type x y z c_peatom 
1 1 7.04879 8.09342 8.933 -5.38884 
9 2 7.70147 6.74995 7.84567 -4.03475 
2 1 9.20664 6.51665 8.78414 -4.38796 
12 2 9.46049 8.47061 8.72025 -3.8898 
7 2 7.59735 9.55017 7.92155 -3.49522 
4 1 11.1164 9.64104 7.92866 -6.4267 
10 2 10.0242 11.1111 7.85893 -3.23082 
11 2 12.5224 10.2868 8.61608 -2.88532 
14 2 8.26834 7.44074 10.3891 -3.82071 
6 1 10.2189 8.40957 10.6361 -7.11132 
8 2 11.847 7.90089 10.9459 -2.63953 
5 1 7.72991 9.06355 11.6201 -5.04738 
15 2 7.70781 10.7116 10.8116 -3.46837 
3 1 8.70293 10.4406 9.1655 -6.54429 
16 2 10.5633 10.1289 9.86505 -3.49094 
13 2 9.44965 9.22087 12.16 -3.57908 
