ITEM: TIMESTEP
885
ITEM: NUMBER OF ATOMS
18
ITEM: BOX BOUNDS ff ff ff
0.0000000000000000e+00 1.8000000000000000e+01
0.0000000000000000e+00 1.8000000000000000e+01
0.0000000000000000e+00 1.8000000000000000e+01
ITEM: ATOMS id type x y z c_peatom
1 1 8.66217 7.44016 8.18476 -5.86064
2 1 6.12745 8.78899 8.32813 -5.15488
8 2 6.75442 7.07775 8.40705 -3.47025
3 1 11.6956 8.40988 7.90276 -7.0248
9 2 11.3826 7.74084 6.35709 -2.75512
10 2 10.6201 6.76332 8.56139 -3.44968
11 2 8.01654 9.29227 8.14696 -4.17595
4 1 9.63226 10.5925 7.98713 -5.13242
12 2 11.3359 10.1737 7.30052 -3.32737
13 2 8.59443 7.46634 10.0669 -3.93632
5 1 10.5745 7.2508 10.4487 -5.80148
14 2 9.91517 8.90102 11.4289 -3.8595
15 2 10.0811 8.93433 9.06593 -4.28445
16 2 12.0831 8.39541 10.0497 -3.57611
6 1 8.25264 9.39558 10.217 -6.41461
17 2 6.28802 9.16782 10.0925 -3.44308
7 1 11.097 10.0297 10.579 -5.13433
18 2 9.51852 11.0111 9.85891 -3.79033
