ITEM: TIMESTEP
138
ITEM: NUMBER OF ATOMS
14
ITEM: BOX BOUNDS ff ff ff
0.0000000000000000e+00 1.8000000000000000e+01
0.0000000000000000e+00 1.8000000000000000e+01
0.0000000000000000e+00 1.8000000000000000e+01
ITEM: ATOMS id type x y z c_peatom 
2 1 8.50608 7.01452 8.43421 -5.31084 
12 2 6.67419 7.4904 8.71399 -4.15573 
14 2 8.48353 8.19142 7.00527 -3.45587 
5 1 9.05159 9.82999 7.88013 -5.71519 
9 2 10.765 9.49091 7.30594 -3.69728 
6 1 11.7054 10.4967 8.53316 -5.29206 
1 1 7.4175 8.94822 10.2829 -5.41504 
4 1 6.36967 6.37718 10.1026 -3.90987 
7 2 7.90238 7.12287 10.6614 -4.10098 
8 2 9.11759 8.64318 9.3963 -4.6185 
13 2 8.45406 9.64209 11.6382 -3.3197 
11 2 11.8062 9.13164 9.72697 -3.50291 
3 1 10.2034 9.64855 10.6913 -5.63496 
10 2 10.044 10.9709 9.3666 -3.93377 
