ITEM: TIMESTEP
546
ITEM: NUMBER OF ATOMS
18
ITEM: BOX BOUNDS ff ff ff
0.0000000000000000e+00 1.8000000000000000e+01
0.0000000000000000e+00 1.8000000000000000e+01
0.0000000000000000e+00 1.8000000000000000e+01
ITEM: ATOMS id type x y z c_peatom
3 1 8.1975 7.62266 7.76545 -4.92442
6 1 11.1968 8.2517 8.25609 -7.38449
8 2 9.88551 7.70584 6.74788 -3.9253
11 2 12.668 7.97052 7.41109 -2.68889
14 2 7.95075 9.36647 7.17724 -4.08367
5 1 9.66865 9.50099 6.25717 -4.95509
18 2 10.9217 9.94149 7.5248 -3.5571
7 1 8.01578 7.98115 11.0361 -5.29354
15 2 6.92525 8.37682 9.34511 -4.11178
13 2 9.81981 7.83557 11.4687 -3.30996
12 2 9.21673 8.40934 9.32841 -3.92503
4 1 5.38408 9.47395 9.52224 -3.96002
10 2 6.31731 10.935 9.5806 -3.8925
17 2 8.28516 9.79434 11.0523 -3.75154
1 1 8.05229 10.1553 9.07548 -6.84283
9 2 11.9186 9.03092 9.85577 -3.17844
2 1 10.3626 9.5554 10.7527 -6.54848
16 2 9.7551 10.908 9.55977 -3.16817
