ITEM: TIMESTEP
487
ITEM: NUMBER OF ATOMS
17
ITEM: BOX BOUNDS ff ff ff
0.0000000000000000e+00 1.8000000000000000e+01
0.0000000000000000e+00 1.8000000000000000e+01
0.0000000000000000e+00 1.8000000000000000e+01
ITEM: ATOMS id type x y z c_peatom 
14 2 7.93299 9.40761 5.58912 -2.57113 
9 2 7.52635 7.76271 8.1056 -3.36585 
15 2 10.1927 8.24539 6.17336 -3.09406 
11 2 10.0809 8.13573 8.46607 -3.40701 
7 2 12.2792 7.76868 7.90454 -2.78953 
4 1 8.62134 9.05891 7.14032 -8.54827 
17 2 7.46269 10.2678 8.07216 -3.042 
10 2 10.0249 10.3412 7.84488 -3.18147 
5 1 11.4603 9.0715 7.16281 -6.74928 
8 2 8.74967 6.48842 10.0129 -2.91603 
2 1 8.44417 7.56557 11.2656 -6.86429 
13 2 6.59889 7.67989 10.7101 -2.98882 
1 1 6.67704 8.90862 9.17707 -6.01763 
16 2 10.3327 8.12682 11.0796 -3.15409 
12 2 8.26904 9.3879 10.3724 -5.42513 
3 1 8.07729 10.4402 11.7351 -2.59947 
6 1 10.1527 9.46173 9.77515 -5.62015 
