ITEM: TIMESTEP
49
ITEM: NUMBER OF ATOMS
384
ITEM: BOX BOUNDS pp pp pp
0.0000000000000000e+00 8.4283000000000001e+00
0.0000000000000000e+00 1.4598200000000000e+01
0.0000000000000000e+00 4.9476269000000002e+01
ITEM: ATOMS id type x y z c_peatom
64 1 2.92401 12.1652 3.61953 -2.2941
65 1 7.13816 4.86606 3.61953 -2.29409
66 1 5.73344 7.2991 5.31004 -6.5982
67 1 7.13816 9.73214 3.61953 -2.29409
68 1 5.73344 12.1652 5.31004 -6.5982
69 1 7.13816 0 3.61953 -2.29408
70 1 5.73344 2.43304 5.31004 -6.5982
71 1 2.92401 7.2991 3.61953 -2.29408
72 1 1.51929 9.73212 5.31004 -6.59819
73 1 2.92401 2.43304 3.61953 -2.29408
74 1 1.51929 4.86606 5.31004 -6.5982
75 1 1.51929 0 5.31004 -6.59819
76 1 0.114574 7.2991 5.80124 -6.54405
77 1 4.32872 9.73212 5.80124 -6.54404
78 1 2.92401 7.2991 7.4917 -6.40207
79 1 0.114574 12.1652 5.80124 -6.54405
80 1 7.13816 9.73214 7.4917 -6.40206
81 1 4.32872 0 5.80124 -6.54405
82 1 2.92401 12.1652 7.4917 -6.40208
83 1 0.114574 2.43304 5.80124 -6.54404
84 1 7.13816 0 7.4917 -6.40207
85 1 4.32872 4.86606 5.80124 -6.54403
86 1 2.92401 2.43304 7.4917 -6.40207
87 1 7.13816 4.86606 7.4917 -6.40206
88 1 5.73344 12.1652 7.98285 -6.40205
91 1 5.73344 7.2991 7.98285 -6.40204
92 1 1.51929 9.73212 7.98285 -6.40204
95 1 5.73344 2.43304 7.98285 -6.40204
96 1 1.51929 4.86606 7.98285 -6.40204
98 1 1.51929 0 7.98285 -6.40204
100 1 4.32872 9.73212 3.12833 -3.27315
101 1 4.32872 4.86606 3.12833 -3.27316
102 1 0.114574 12.1652 3.12833 -3.27315
103 1 0.114574 2.43304 3.12833 -3.27315
104 1 0.114574 7.2991 3.12833 -3.27315
105 1 4.32872 0 3.12833 -3.27314
331 2 3.03858 10.477 4.46474 -3.32409
332 2 1.40472 12.91 4.46474 -3.32409
333 2 4.32872 13.1085 4.46474 -3.32408
334 2 7.25273 3.1779 4.46474 -3.32408
335 2 0.114574 5.80937 4.46474 -3.32409
336 2 5.61887 5.61093 4.46474 -3.32408
337 2 0.114574 10.6754 4.46474 -3.32409
338 2 5.61887 10.477 4.46474 -3.32408
339 2 7.25273 8.04396 4.46474 -3.32409
340 2 0.114574 0.943306 4.46474 -3.32409
341 2 5.61887 0.744873 4.46474 -3.32408
342 2 7.25273 12.91 4.46474 -3.32408
343 2 1.40472 8.04396 4.46474 -3.32407
344 2 4.32872 8.24241 4.46474 -3.32408
345 2 3.03858 5.61092 4.46474 -3.32409
346 2 1.40472 3.1779 4.46474 -3.32408
347 2 4.32872 3.37635 4.46474 -3.32409
348 2 3.03858 0.744859 4.46474 -3.32408
349 2 0.22914 8.98727 6.64644 -4.12705
350 2 7.02359 6.55424 6.64644 -4.12705
351 2 1.51929 6.35579 6.64644 -4.12705
352 2 5.73344 8.78883 6.64644 -4.12705
353 2 2.80944 8.98727 6.64644 -4.12704
354 2 4.44329 11.4203 6.64644 -4.12706
355 2 0.22914 13.8533 6.64644 -4.12706
356 2 7.02359 11.4203 6.64644 -4.12704
357 2 1.51929 11.2219 6.64644 -4.12706
358 2 4.44329 1.68816 6.64644 -4.12706
359 2 5.73344 13.6549 6.64644 -4.12705
360 2 2.80944 13.8533 6.64644 -4.12705
361 2 0.22914 4.1212 6.64644 -4.12705
362 2 1.51929 1.48973 6.64644 -4.12705
363 2 7.02359 1.68816 6.64644 -4.12705
364 2 2.80944 4.1212 6.64644 -4.12704
365 2 5.73344 3.92275 6.64644 -4.12704
366 2 4.44329 6.55424 6.64644 -4.12706
28 1 5.73344 2.43304 14.5279 -6.40125
29 1 4.32872 4.86606 16.2184 -6.38374
30 1 5.73344 12.1652 14.5279 -6.40126
31 1 5.73344 7.2991 14.5279 -6.40126
32 1 4.32872 9.73212 16.2184 -6.4159
33 1 1.51928 4.86606 14.5279 -6.40124
34 1 0.114574 2.43304 16.2184 -6.42014
35 1 1.51928 0 14.5279 -6.40125
36 1 0.114574 12.1652 16.2184 -6.39745
37 1 1.51928 9.73212 14.5279 -6.40124
38 1 0.114574 7.2991 16.2184 -6.40171
39 1 4.32872 0 16.2184 -6.38834
40 1 2.92401 12.1652 10.1646 -6.40196
41 1 2.92401 7.2991 10.1646 -6.40195
42 1 1.51929 9.73212 11.855 -6.4021
43 1 7.13816 4.86606 10.1646 -6.40194
44 1 5.73344 2.43304 11.855 -6.40212
45 1 7.13816 0 10.1646 -6.40195
46 1 5.73344 12.1652 11.855 -6.40212
47 1 7.13816 9.73214 10.1646 -6.40194
48 1 5.73344 7.2991 11.855 -6.40212
49 1 2.92401 2.43304 10.1646 -6.40195
50 1 1.51929 0 11.855 -6.40212
51 1 1.51929 4.86606 11.855 -6.4021
52 1 4.32872 0 12.3462 -6.40196
53 1 2.92401 2.43304 14.0367 -6.38416
54 1 7.13816 0 14.0367 -6.38415
55 1 0.114574 7.2991 12.3462 -6.40197
56 1 0.114574 2.43304 12.3462 -6.40196
57 1 7.13816 4.86606 14.0367 -6.38415
58 1 4.32872 4.86606 12.3462 -6.40196
59 1 2.92401 7.2991 14.0367 -6.38417
60 1 0.114574 12.1652 12.3462 -6.40197
61 1 4.32872 9.73212 12.3462 -6.40196
62 1 7.13816 9.73214 14.0367 -6.38415
63 1 2.92401 12.1652 14.0367 -6.38418
89 1 0.114574 12.1652 9.67335 -6.40208
90 1 4.32872 9.73212 9.67335 -6.40207
93 1 0.114574 7.2991 9.67335 -6.40207
94 1 4.32872 4.86606 9.67335 -6.40207
97 1 0.114574 2.43304 9.67335 -6.40207
99 1 4.32872 0 9.67335 -6.40207
277 2 5.84801 4.1212 15.3731 -4.12743
278 2 7.13816 1.48973 15.3731 -4.12743
279 2 4.21415 1.68818 15.3731 -4.12744
280 2 5.84801 13.8533 15.3731 -4.12743
281 2 7.13816 11.2219 15.3731 -4.12743
282 2 4.21415 11.4203 15.3731 -4.12745
283 2 5.84801 8.98727 15.3731 -4.12743
284 2 7.13816 6.35579 15.3731 -4.12744
285 2 4.21415 6.55424 15.3731 -4.12745
286 2 0 4.1212 15.3731 -4.12742
287 2 2.92401 3.92275 15.3731 -4.12744
288 2 1.63386 6.55424 15.3731 -4.12744
289 2 1.63386 1.68816 15.3731 -4.12743
290 2 0 13.8533 15.3731 -4.12744
291 2 2.92401 13.6549 15.3731 -4.12745
292 2 0 8.98727 15.3731 -4.12744
293 2 2.92401 8.78882 15.3731 -4.12744
294 2 1.63386 11.4203 15.3731 -4.12744
295 2 3.03858 13.8533 11.0098 -4.12708
296 2 1.40472 11.4203 11.0098 -4.12708
297 2 4.32872 11.2219 11.0098 -4.12709
298 2 3.03858 8.98727 11.0098 -4.12707
299 2 1.40472 6.55424 11.0098 -4.12709
300 2 4.32872 6.35579 11.0098 -4.12709
301 2 5.61887 4.1212 11.0098 -4.12707
302 2 0.114574 3.92275 11.0098 -4.12708
303 2 7.25273 6.55424 11.0098 -4.12709
304 2 0.114574 13.6549 11.0098 -4.12709
305 2 5.61887 13.8533 11.0098 -4.12707
306 2 7.25273 1.68818 11.0098 -4.12709
307 2 7.25273 11.4203 11.0098 -4.12707
308 2 5.61887 8.98727 11.0098 -4.12708
309 2 0.114574 8.78882 11.0098 -4.12709
310 2 3.03858 4.1212 11.0098 -4.12707
311 2 4.32872 1.48973 11.0098 -4.12708
312 2 1.40472 1.68816 11.0098 -4.12708
313 2 5.73344 0.943306 13.1914 -4.12709
314 2 2.80944 0.744873 13.1914 -4.12708
315 2 4.44329 12.91 13.1914 -4.1271
316 2 0.22914 5.61093 13.1914 -4.12709
317 2 7.02359 8.04396 13.1914 -4.12709
318 2 1.51929 8.24241 13.1914 -4.12708
319 2 0.22914 0.744873 13.1914 -4.12709
320 2 7.02359 3.1779 13.1914 -4.12708
321 2 1.51929 3.37635 13.1914 -4.12708
322 2 4.44329 3.1779 13.1914 -4.12709
323 2 5.73344 5.80937 13.1914 -4.1271
324 2 2.80944 5.61093 13.1914 -4.12709
325 2 0.22914 10.477 13.1914 -4.12709
326 2 7.02359 12.91 13.1914 -4.12709
327 2 1.51929 13.1085 13.1914 -4.12709
328 2 4.44329 8.04396 13.1914 -4.12709
329 2 5.73344 10.6754 13.1914 -4.12709
330 2 2.80944 10.477 13.1914 -4.12709
367 2 5.84801 10.477 8.8281 -4.12712
368 2 7.13816 13.1085 8.8281 -4.12713
369 2 0 10.477 8.8281 -4.12713
370 2 1.63386 12.91 8.8281 -4.12713
371 2 4.21415 8.04396 8.8281 -4.12713
372 2 5.84801 5.61093 8.8281 -4.12712
373 2 7.13816 8.24241 8.8281 -4.12713
374 2 1.63386 8.04396 8.8281 -4.12711
375 2 2.92401 10.6754 8.8281 -4.12713
376 2 4.21415 3.1779 8.8281 -4.12712
377 2 5.84801 0.744873 8.8281 -4.12712
378 2 7.13816 3.37635 8.8281 -4.12712
379 2 1.63386 3.1779 8.8281 -4.12711
380 2 2.92401 5.80937 8.8281 -4.12713
381 2 2.92401 0.943306 8.8281 -4.12713
382 2 4.21415 12.91 8.8281 -4.12713
383 2 0 0.744859 8.8281 -4.12713
384 2 0 5.61092 8.8281 -4.12714
1 1 0.581886 7.74807 21.1103 -2.8828
2 1 8.33673 4.71585 21.4566 -3.061
3 1 7.13816 4.86606 19.0018 -2.80857
4 1 0.114574 7.2991 18.5106 -3.18098
5 1 0.126847 12.1775 20.9903 -2.22239
6 1 7.13816 9.73214 19.0018 -2.66889
7 1 0.114574 12.1652 18.5106 -3.25246
8 1 7.13816 0 19.0018 -2.81044
9 1 0.114574 2.43304 18.5106 -3.03779
10 1 2.936 12.6225 21.5612 -2.76464
11 1 5.11457 0.565078 20.8861 -2.13348
12 1 2.92401 12.1652 19.0018 -2.89853
13 1 4.32872 0 18.5106 -3.37518
14 1 5.05915 7.14971 20.0123 -4.22135
15 1 2.47825 5.24495 20.1612 -4.18252
16 1 2.92401 7.2991 19.0018 -2.8498
17 1 4.32872 9.73212 18.5106 -3.08998
18 1 4.87674 4.70889 21.472 -3.11732
19 1 2.66991 0.455522 20.7853 -2.25143
20 1 2.92401 2.43304 19.0018 -2.90916
21 1 4.32872 4.86606 18.5106 -3.24351
22 1 2.92401 12.1652 16.7095 -6.61593
23 1 7.13816 4.86606 16.7095 -6.61928
24 1 7.13816 9.73214 16.7095 -6.64626
25 1 2.92401 2.43304 16.7095 -6.62491
26 1 2.92401 7.2991 16.7095 -6.59615
27 1 7.13816 0 16.7095 -6.63468
118 1 7.0236 8.27947 23.8462 -3.02247
119 1 1.40472 8.27947 23.8462 -3.13554
120 1 5.61888 10.7125 23.8576 -2.94556
121 1 0 10.7125 23.8576 -3.08216
122 1 4.21416 8.27947 23.8462 -2.94795
123 1 2.80944 10.7125 23.8576 -3.11449
125 1 4.21416 13.1455 23.869 -3.16753
127 1 7.0236 13.1455 23.869 -3.05855
129 1 1.40472 13.1455 23.869 -3.26109
133 1 5.61888 0.980371 23.812 -3.1559
134 1 0 0.980371 23.812 -2.93535
135 1 2.80944 0.980371 23.812 -3.11223
136 1 7.0236 3.41341 23.8235 -3.14716
137 1 1.40472 3.41341 23.8235 -3.08371
138 1 5.61888 5.84643 23.8348 -3.12485
139 1 0 5.84643 23.8348 -3.21721
140 1 4.21416 3.41341 23.8235 -3.11152
141 1 2.80944 5.84643 23.8348 -3.01034
250 2 7.60599 6.48397 21.3463 -1.59747
251 2 0.119374 14.0496 21.3903 -0.649571
252 2 3.82522 1.86666 21.4843 -1.07524
253 2 4.22677 11.1897 21.3485 -0.639872
254 2 4.20328 8.58444 20.9852 -1.14563
255 2 5.76071 7.40084 21.6319 -1.15671
256 2 1.39705 6.00991 21.5464 -2.37882
257 2 3.77715 6.33312 21.3733 -2.54599
258 2 2.93935 4.27359 21.6494 -1.78904
259 2 4.32872 8.24241 17.5548 -3.24839
260 2 4.32872 3.37635 17.5548 -3.24727
261 2 1.40472 12.91 17.5548 -3.24778
262 2 7.25273 12.91 17.5548 -3.24794
263 2 1.40472 3.1779 17.5548 -3.24803
264 2 7.25273 3.1779 17.5548 -3.24803
265 2 0.114574 10.6754 17.5548 -3.24783
266 2 4.32872 13.1085 17.5548 -3.24753
267 2 0.114574 5.80937 17.5548 -3.24764
268 2 0.114574 0.943306 17.5548 -3.2482
269 2 1.40472 8.04397 17.5548 -3.24703
270 2 5.61887 5.61093 17.5548 -3.24728
271 2 3.03858 5.61093 17.5548 -3.24592
272 2 7.25273 8.04397 17.5548 -3.2477
273 2 3.03858 0.744873 17.5548 -3.24755
274 2 5.61887 0.744873 17.5548 -3.24769
275 2 5.61887 10.477 17.5548 -3.24782
276 2 3.03858 10.477 17.5548 -3.2478
106 1 7.0236 5.02485 26.1582 -3.40121
107 1 1.40472 5.02485 26.1582 -3.41078
108 1 5.61888 7.45787 26.1696 -3.41405
109 1 0 7.45787 26.1696 -3.41194
110 1 4.21416 5.02485 26.1582 -3.42126
111 1 2.80944 7.45787 26.1696 -3.41999
112 1 7.0236 9.89091 26.181 -3.42418
113 1 1.40472 9.89091 26.181 -3.40621
114 1 5.61888 12.3239 26.1924 -3.41644
115 1 0 12.3239 26.1924 -3.42082
116 1 4.21416 9.89091 26.181 -3.42936
117 1 2.80944 12.3239 26.1924 -3.41298
124 1 4.21416 0.158785 26.1354 -3.39951
126 1 7.0236 0.158785 26.1354 -3.4126
128 1 1.40472 0.158785 26.1354 -3.40197
130 1 5.61888 2.59181 26.1468 -3.40325
131 1 0 2.59181 26.1468 -3.42206
132 1 2.80944 2.59181 26.1468 -3.40034
142 1 5.61888 5.81468 30.8164 -3.35104
143 1 0 5.81468 30.8164 -3.35104
144 1 7.0236 8.24771 30.8277 -3.35103
145 1 1.40472 8.24771 30.8277 -3.35103
146 1 4.21416 8.24771 30.8277 -3.35103
147 1 2.80944 5.81468 30.8164 -3.35104
148 1 7.0236 1.77021 28.4702 -3.35207
149 1 1.40472 1.77021 28.4702 -3.35207
150 1 4.21416 1.77021 28.4702 -3.35207
151 1 7.0236 6.63627 28.493 -3.35105
152 1 1.40472 6.63627 28.493 -3.35104
153 1 5.61888 4.20324 28.4816 -3.35108
154 1 0 4.20324 28.4816 -3.35108
155 1 4.21416 6.63627 28.493 -3.35104
156 1 2.80944 4.20324 28.4816 -3.35108
157 1 5.61888 9.06931 28.5044 -3.35104
158 1 0 9.06931 28.5044 -3.35104
159 1 7.0236 11.5023 28.5158 -3.35223
160 1 1.40472 11.5023 28.5158 -3.35223
161 1 4.21416 11.5023 28.5158 -3.35223
162 1 2.80944 9.06931 28.5044 -3.35104
163 1 2.80944 0.94862 30.7936 -3.3559
164 1 2.80944 13.9354 28.5271 -3.34153
165 1 0 0.94862 30.7936 -3.3559
166 1 0 13.9354 28.5271 -3.34154
167 1 5.61888 0.94862 30.7936 -3.3559
168 1 5.61888 13.9354 28.5271 -3.34153
169 1 7.0236 3.38164 30.805 -3.34972
170 1 1.40472 3.38164 30.805 -3.34972
171 1 4.21416 3.38164 30.805 -3.34972
182 1 4.21416 13.1138 30.8505 -3.35589
183 1 5.61888 10.6807 30.8392 -3.34972
184 1 0 10.6807 30.8392 -3.34973
186 1 7.0236 13.1138 30.8505 -3.3559
188 1 1.40472 13.1138 30.8505 -3.35589
189 1 2.80944 10.6807 30.8392 -3.34972
172 1 5.61888 7.42612 33.1512 -3.35104
173 1 0 7.42612 33.1512 -3.35104
174 1 7.0236 9.85914 33.1626 -3.35108
175 1 1.40472 9.85914 33.1626 -3.35108
176 1 4.21416 9.85914 33.1626 -3.35108
177 1 2.80944 7.42612 33.1512 -3.35104
178 1 5.61888 12.2922 33.1739 -3.35206
179 1 0 12.2922 33.1739 -3.35206
180 1 2.80944 12.2922 33.1739 -3.35206
181 1 4.21416 0.127019 33.117 -3.34154
185 1 7.0236 0.127019 33.117 -3.34154
187 1 1.40472 0.127019 33.117 -3.34154
190 1 5.61888 2.56006 33.1284 -3.35222
191 1 0 2.56006 33.1284 -3.35222
192 1 7.0236 4.99308 33.1397 -3.35105
193 1 1.40472 4.99308 33.1397 -3.35104
194 1 4.21416 4.99308 33.1397 -3.35104
195 1 2.80944 2.56006 33.1284 -3.35222
196 1 5.61888 12.2604 40.1555 -2.97112
197 1 0 12.2604 40.1555 -2.97112
198 1 2.80944 12.2604 40.1555 -2.97111
199 1 7.0236 9.82739 40.1441 -2.97446
200 1 1.40472 9.82739 40.1441 -2.97446
201 1 4.21416 9.82739 40.1441 -2.97446
202 1 5.61888 5.78293 37.7979 -3.43976
203 1 0 5.78293 37.7979 -3.43976
204 1 7.0236 8.21595 37.8093 -3.43975
205 1 1.40472 8.21595 37.8093 -3.43975
206 1 4.21416 8.21595 37.8093 -3.43975
207 1 2.80944 5.78293 37.7979 -3.43976
208 1 4.21416 0.095268 40.0985 -2.9788
209 1 4.21416 13.082 37.8321 -3.44396
210 1 5.61888 2.52829 40.11 -2.97213
211 1 0 2.52829 40.11 -2.97213
212 1 5.61888 10.649 37.8207 -3.43844
213 1 0 10.649 37.8207 -3.43844
214 1 7.0236 0.095268 40.0985 -2.97881
215 1 7.0236 13.082 37.8321 -3.44396
216 1 1.40472 0.095268 40.0985 -2.97881
217 1 1.40472 13.082 37.8321 -3.44396
218 1 2.80944 2.52829 40.11 -2.97213
219 1 2.80944 10.649 37.8207 -3.43844
220 1 7.0236 4.96133 40.1213 -2.97443
221 1 1.40472 4.96133 40.1213 -2.97443
222 1 5.61888 7.39435 40.1327 -2.97441
223 1 0 7.39435 40.1327 -2.97442
224 1 4.21416 4.96133 40.1213 -2.97442
225 1 2.80944 7.39435 40.1327 -2.97441
226 1 5.61888 9.03756 35.4859 -3.35104
227 1 0 9.03756 35.4859 -3.35105
228 1 7.0236 11.4706 35.4973 -3.35223
229 1 1.40472 11.4706 35.4973 -3.35223
230 1 4.21416 11.4706 35.4973 -3.35223
231 1 2.80944 9.03756 35.4859 -3.35104
232 1 2.80944 0.916869 37.7751 -3.4418
233 1 2.80944 13.9036 35.5087 -3.34154
234 1 0 0.916869 37.7751 -3.44181
235 1 0 13.9036 35.5087 -3.34155
236 1 5.61888 0.916869 37.7751 -3.4418
237 1 5.61888 13.9036 35.5087 -3.34154
238 1 7.0236 3.34989 37.7865 -3.43844
239 1 1.40472 3.34989 37.7865 -3.43843
240 1 4.21416 3.34989 37.7865 -3.43843
241 1 7.0236 1.73846 35.4518 -3.35208
242 1 1.40472 1.73846 35.4518 -3.35207
243 1 4.21416 1.73846 35.4518 -3.35207
244 1 7.0236 6.60452 35.4745 -3.35104
245 1 1.40472 6.60452 35.4745 -3.35104
246 1 5.61888 4.17149 35.4632 -3.35108
247 1 0 4.17149 35.4632 -3.35108
248 1 4.21416 6.60452 35.4745 -3.35104
249 1 2.80944 4.17149 35.4632 -3.35108
