ITEM: TIMESTEP
1066
ITEM: NUMBER OF ATOMS
17
ITEM: BOX BOUNDS ff ff ff
0.0000000000000000e+00 1.8000000000000000e+01
0.0000000000000000e+00 1.8000000000000000e+01
0.0000000000000000e+00 1.8000000000000000e+01
ITEM: ATOMS id type x y z c_peatom
1 1 8.01416 10.5503 5.84618 -5.26803
2 1 8.53705 5.97273 8.81005 -6.94155
8 2 7.08756 6.21307 7.92492 -2.7284
7 2 9.16894 7.38325 7.76205 -3.0414
9 2 11.4184 8.65701 8.82045 -2.54289
3 1 8.56869 11.2774 8.39675 -6.80318
10 2 6.94636 10.8004 7.21913 -3.3513
11 2 8.86604 11.9796 6.59351 -3.34016
16 2 7.72431 9.55641 8.9884 -3.93621
12 2 9.17442 9.79086 7.22001 -3.21207
13 2 7.49107 6.58169 10.2576 -3.52955
4 1 8.79044 7.17139 11.3924 -5.03519
15 2 9.98569 6.91583 9.99168 -3.59083
5 1 9.69647 8.72094 9.06817 -8.79697
6 1 7.52133 9.81359 10.7717 -3.9283
14 2 9.16625 9.06374 11.0496 -4.13142
17 2 10.2027 10.6636 9.07802 -2.99413
