ITEM: TIMESTEP
69
ITEM: NUMBER OF ATOMS
387
ITEM: BOX BOUNDS pp pp pp
0.0000000000000000e+00 8.4283000000000001e+00
0.0000000000000000e+00 1.4598200000000000e+01
0.0000000000000000e+00 4.9476269000000002e+01
ITEM: ATOMS id type x y z c_peatom
53 1 2.92401 12.1652 3.61953 -2.2941
54 1 7.13816 4.86606 3.61953 -2.29409
55 1 5.73344 7.2991 5.31004 -6.5982
56 1 7.13816 9.73214 3.61953 -2.29409
57 1 5.73344 12.1652 5.31004 -6.5982
58 1 7.13816 0 3.61953 -2.29408
59 1 5.73344 2.43304 5.31004 -6.5982
60 1 2.92401 7.2991 3.61953 -2.29408
61 1 1.51929 9.73212 5.31004 -6.59819
62 1 2.92401 2.43304 3.61953 -2.29408
63 1 1.51929 4.86606 5.31004 -6.5982
64 1 1.51929 0 5.31004 -6.59819
65 1 0.114574 7.2991 5.80124 -6.54405
66 1 4.32872 9.73212 5.80124 -6.54404
67 1 2.92401 7.2991 7.4917 -6.40207
68 1 0.114574 12.1652 5.80124 -6.54405
69 1 7.13816 9.73214 7.4917 -6.40206
70 1 4.32872 0 5.80124 -6.54405
71 1 2.92401 12.1652 7.4917 -6.40208
72 1 0.114574 2.43304 5.80124 -6.54404
73 1 7.13816 0 7.4917 -6.40207
74 1 4.32872 4.86606 5.80124 -6.54403
75 1 2.92401 2.43304 7.4917 -6.40207
76 1 7.13816 4.86606 7.4917 -6.40206
77 1 5.73344 12.1652 7.98285 -6.40205
80 1 5.73344 7.2991 7.98285 -6.40204
81 1 1.51929 9.73212 7.98285 -6.40204
84 1 5.73344 2.43304 7.98285 -6.40204
85 1 1.51929 4.86606 7.98285 -6.40204
87 1 1.51929 0 7.98285 -6.40204
89 1 4.32872 9.73212 3.12833 -3.27315
90 1 4.32872 4.86606 3.12833 -3.27316
91 1 0.114574 12.1652 3.12833 -3.27315
92 1 0.114574 2.43304 3.12833 -3.27315
93 1 0.114574 7.2991 3.12833 -3.27315
94 1 4.32872 0 3.12833 -3.27314
325 2 3.03858 10.477 4.46474 -3.32409
326 2 1.40472 12.91 4.46474 -3.32409
327 2 4.32872 13.1085 4.46474 -3.32408
328 2 7.25273 3.1779 4.46474 -3.32408
329 2 0.114574 5.80937 4.46474 -3.32409
330 2 5.61887 5.61093 4.46474 -3.32408
331 2 0.114574 10.6754 4.46474 -3.32409
332 2 5.61887 10.477 4.46474 -3.32408
333 2 7.25273 8.04396 4.46474 -3.32409
334 2 0.114574 0.943306 4.46474 -3.32409
335 2 5.61887 0.744873 4.46474 -3.32408
336 2 7.25273 12.91 4.46474 -3.32408
337 2 1.40472 8.04396 4.46474 -3.32407
338 2 4.32872 8.24241 4.46474 -3.32408
339 2 3.03858 5.61092 4.46474 -3.32409
340 2 1.40472 3.1779 4.46474 -3.32408
341 2 4.32872 3.37635 4.46474 -3.32409
342 2 3.03858 0.744859 4.46474 -3.32408
343 2 0.22914 8.98727 6.64644 -4.12705
344 2 7.02359 6.55424 6.64644 -4.12705
345 2 1.51929 6.35579 6.64644 -4.12705
346 2 5.73344 8.78883 6.64644 -4.12705
347 2 2.80944 8.98727 6.64644 -4.12704
348 2 4.44329 11.4203 6.64644 -4.12706
349 2 0.22914 13.8533 6.64644 -4.12706
350 2 7.02359 11.4203 6.64644 -4.12704
351 2 1.51929 11.2219 6.64644 -4.12706
352 2 4.44329 1.68816 6.64644 -4.12706
353 2 5.73344 13.6549 6.64644 -4.12705
354 2 2.80944 13.8533 6.64644 -4.12705
355 2 0.22914 4.1212 6.64644 -4.12705
356 2 1.51929 1.48973 6.64644 -4.12705
357 2 7.02359 1.68816 6.64644 -4.12705
358 2 2.80944 4.1212 6.64644 -4.12704
359 2 5.73344 3.92275 6.64644 -4.12704
360 2 4.44329 6.55424 6.64644 -4.12706
17 1 5.73344 2.43304 14.5279 -6.40093
18 1 4.32872 4.86606 16.2184 -6.39944
19 1 5.73344 12.1652 14.5279 -6.40067
20 1 5.73344 7.2991 14.5279 -6.40087
21 1 4.32872 9.73212 16.2184 -6.41969
22 1 1.51928 4.86606 14.5279 -6.40101
23 1 0.114574 2.43304 16.2184 -6.27655
24 1 1.51928 0 14.5279 -6.39974
25 1 0.114574 12.1652 16.2184 -6.29839
26 1 1.51928 9.73212 14.5279 -6.40122
27 1 0.114574 7.2991 16.2184 -6.36404
28 1 4.32872 0 16.2184 -6.3039
29 1 2.92401 12.1652 10.1646 -6.40196
30 1 2.92401 7.2991 10.1646 -6.40195
31 1 1.51929 9.73212 11.855 -6.4021
32 1 7.13816 4.86606 10.1646 -6.40194
33 1 5.73344 2.43304 11.855 -6.40212
34 1 7.13816 0 10.1646 -6.40195
35 1 5.73344 12.1652 11.855 -6.40212
36 1 7.13816 9.73214 10.1646 -6.40194
37 1 5.73344 7.2991 11.855 -6.40212
38 1 2.92401 2.43304 10.1646 -6.40195
39 1 1.51929 0 11.855 -6.40212
40 1 1.51929 4.86606 11.855 -6.4021
41 1 4.32872 0 12.3462 -6.40196
42 1 2.92401 2.43304 14.0367 -6.38409
43 1 7.13816 0 14.0367 -6.3825
44 1 0.114574 7.2991 12.3462 -6.40197
45 1 0.114574 2.43304 12.3462 -6.40196
46 1 7.13816 4.86606 14.0367 -6.38219
47 1 4.32872 4.86606 12.3462 -6.40196
48 1 2.92401 7.2991 14.0367 -6.38417
49 1 0.114574 12.1652 12.3462 -6.40197
50 1 4.32872 9.73212 12.3462 -6.40196
51 1 7.13816 9.73214 14.0367 -6.38415
52 1 2.92401 12.1652 14.0367 -6.38411
78 1 0.114574 12.1652 9.67335 -6.40208
79 1 4.32872 9.73212 9.67335 -6.40207
82 1 0.114574 7.2991 9.67335 -6.40207
83 1 4.32872 4.86606 9.67335 -6.40207
86 1 0.114574 2.43304 9.67335 -6.40207
88 1 4.32872 0 9.67335 -6.40207
271 2 5.84801 4.1212 15.3731 -4.12736
272 2 7.13816 1.48973 15.3731 -4.12727
273 2 4.21415 1.68818 15.3731 -4.12743
274 2 5.84801 13.8533 15.3731 -4.12727
275 2 7.13816 11.2219 15.3731 -4.12743
276 2 4.21415 11.4203 15.3731 -4.12743
277 2 5.84801 8.98727 15.3731 -4.12743
278 2 7.13816 6.35579 15.3731 -4.12738
279 2 4.21415 6.55424 15.3731 -4.12745
280 2 0 4.1212 15.3731 -4.12736
281 2 2.92401 3.92275 15.3731 -4.12742
282 2 1.63386 6.55424 15.3731 -4.12744
283 2 1.63386 1.68816 15.3731 -4.12742
284 2 0 13.8533 15.3731 -4.12727
285 2 2.92401 13.6549 15.3731 -4.12743
286 2 0 8.98727 15.3731 -4.12744
287 2 2.92401 8.78882 15.3731 -4.12744
288 2 1.63386 11.4203 15.3731 -4.12742
289 2 3.03858 13.8533 11.0098 -4.12708
290 2 1.40472 11.4203 11.0098 -4.12708
291 2 4.32872 11.2219 11.0098 -4.12709
292 2 3.03858 8.98727 11.0098 -4.12707
293 2 1.40472 6.55424 11.0098 -4.12709
294 2 4.32872 6.35579 11.0098 -4.12709
295 2 5.61887 4.1212 11.0098 -4.12707
296 2 0.114574 3.92275 11.0098 -4.12708
297 2 7.25273 6.55424 11.0098 -4.12709
298 2 0.114574 13.6549 11.0098 -4.12709
299 2 5.61887 13.8533 11.0098 -4.12707
300 2 7.25273 1.68818 11.0098 -4.12709
301 2 7.25273 11.4203 11.0098 -4.12707
302 2 5.61887 8.98727 11.0098 -4.12708
303 2 0.114574 8.78882 11.0098 -4.12709
304 2 3.03858 4.1212 11.0098 -4.12707
305 2 4.32872 1.48973 11.0098 -4.12708
306 2 1.40472 1.68816 11.0098 -4.12708
307 2 5.73344 0.943306 13.1914 -4.12709
308 2 2.80944 0.744873 13.1914 -4.12708
309 2 4.44329 12.91 13.1914 -4.1271
310 2 0.22914 5.61093 13.1914 -4.12709
311 2 7.02359 8.04396 13.1914 -4.12709
312 2 1.51929 8.24241 13.1914 -4.12708
313 2 0.22914 0.744873 13.1914 -4.12709
314 2 7.02359 3.1779 13.1914 -4.12708
315 2 1.51929 3.37635 13.1914 -4.12708
316 2 4.44329 3.1779 13.1914 -4.12709
317 2 5.73344 5.80937 13.1914 -4.1271
318 2 2.80944 5.61093 13.1914 -4.12709
319 2 0.22914 10.477 13.1914 -4.12709
320 2 7.02359 12.91 13.1914 -4.12709
321 2 1.51929 13.1085 13.1914 -4.12709
322 2 4.44329 8.04396 13.1914 -4.12709
323 2 5.73344 10.6754 13.1914 -4.12709
324 2 2.80944 10.477 13.1914 -4.12709
361 2 5.84801 10.477 8.8281 -4.12712
362 2 7.13816 13.1085 8.8281 -4.12713
363 2 0 10.477 8.8281 -4.12713
364 2 1.63386 12.91 8.8281 -4.12713
365 2 4.21415 8.04396 8.8281 -4.12713
366 2 5.84801 5.61093 8.8281 -4.12712
367 2 7.13816 8.24241 8.8281 -4.12713
368 2 1.63386 8.04396 8.8281 -4.12711
369 2 2.92401 10.6754 8.8281 -4.12713
370 2 4.21415 3.1779 8.8281 -4.12712
371 2 5.84801 0.744873 8.8281 -4.12712
372 2 7.13816 3.37635 8.8281 -4.12712
373 2 1.63386 3.1779 8.8281 -4.12711
374 2 2.92401 5.80937 8.8281 -4.12713
375 2 2.92401 0.943306 8.8281 -4.12713
376 2 4.21415 12.91 8.8281 -4.12713
377 2 0 0.744859 8.8281 -4.12713
378 2 0 5.61092 8.8281 -4.12714
1 1 7.13816 0 19.0018 -4.21828
2 1 2.92401 12.1652 19.0018 -5.59673
3 1 1.37706 0.000482266 18.9432 -5.3678
4 1 2.5907 12.55 21.4728 -2.77548
5 1 4.32872 4.86606 18.5106 -3.14023
6 1 2.92401 7.2991 16.7095 -6.62526
7 1 4.32872 9.73212 18.5106 -2.92394
8 1 2.92401 12.1652 16.7095 -6.40881
9 1 0.114574 12.1652 18.5106 -5.5283
10 1 0.114574 7.2991 18.5106 -4.25627
11 1 7.13816 9.73214 16.7095 -6.54469
12 1 0.114574 2.43304 18.5106 -7.00774
13 1 7.13816 4.86606 16.7095 -6.44691
14 1 4.32872 0 18.5106 -6.71474
15 1 2.92401 2.43304 16.7095 -6.43171
16 1 7.13816 0 16.7095 -6.39283
95 1 2.92401 2.43304 19.0018 -5.72713
96 1 7.13816 4.86606 19.0018 -4.75277
97 1 7.13816 9.73214 19.0018 -3.77406
98 1 2.92401 7.2991 19.0018 -2.71874
99 1 6.35022 3.19629 19.7801 -4.53299
100 1 0.418717 5.89991 20.7037 -3.18312
101 1 7.15448 13.063 20.9243 -3.09645
102 1 3.58824 5.5559 21.2387 -1.97846
103 1 5.61888 0.980371 23.812 -2.93324
104 1 0 0.980371 23.812 -2.93343
105 1 2.80944 0.980371 23.812 -2.95195
106 1 5.61888 5.84643 23.8348 -3.06861
107 1 0 5.84643 23.8348 -3.0784
108 1 7.0236 3.41341 23.8235 -3.09225
109 1 1.40472 3.41341 23.8235 -2.92729
110 1 4.21416 3.41341 23.8235 -3.05015
111 1 2.80944 5.84643 23.8348 -3.21216
124 1 7.0236 8.27947 23.8462 -2.96013
125 1 1.40472 8.27947 23.8462 -2.94829
126 1 5.61888 10.7125 23.8576 -2.92431
127 1 0 10.7125 23.8576 -3.11023
128 1 4.21416 8.27947 23.8462 -2.94842
129 1 2.80944 10.7125 23.8576 -3.10198
131 1 4.21416 13.1455 23.869 -3.1259
133 1 7.0236 13.1455 23.869 -3.12319
135 1 1.40472 13.1455 23.869 -3.15291
247 1 -0.24041 11.0549 20.9796 -3.12844
248 2 7.23886 1.65722 19.7078 -3.39587
249 2 4.85873 1.82922 19.4027 -2.84355
250 2 1.42399 11.282 19.805 -2.78238
251 2 4.32872 3.37635 17.5548 -3.41061
252 2 3.03858 5.61093 17.5548 -3.24769
253 2 5.61887 5.61093 17.5548 -3.52899
254 2 4.32872 8.24241 17.5548 -3.24818
255 2 3.03858 10.477 17.5548 -3.43589
256 2 5.61887 10.477 17.5548 -3.46697
257 2 1.40472 12.91 17.5548 -4.4989
258 2 7.25273 12.91 17.5548 -3.86877
259 2 0.114574 10.6754 17.5548 -3.76847
260 2 0.114574 5.80937 17.5548 -3.73833
261 2 1.40472 8.04397 17.5548 -3.40068
262 2 7.25273 8.04397 17.5548 -3.40435
263 2 0.140403 4.05869 19.8967 -3.40756
264 2 1.35666 1.69071 19.6474 -3.36078
265 2 1.40472 3.1779 17.5548 -3.73083
266 2 7.25273 3.1779 17.5548 -4.34374
267 2 0.114574 0.943306 17.5548 -4.67084
268 2 4.32872 13.1085 17.5548 -3.99216
269 2 3.03858 0.744873 17.5548 -5.37732
270 2 5.61887 0.744873 17.5548 -3.79011
379 2 7.23092 6.55944 19.6414 -2.49407
380 2 4.58437 12.2585 20.1367 -2.59637
381 2 2.60475 13.607 19.8558 -3.75803
382 2 6.31825 11.3963 21.3942 -1.75903
383 2 7.11884 11.5454 19.4657 -3.52236
384 2 5.34101 13.3098 19.9563 -3.38678
385 2 1.81416 4.89623 21.5148 -1.44117
386 2 6.44376 2.68559 21.8201 -1.28038
387 2 3.19092 0.847785 19.958 -2.29436
112 1 7.0236 5.02485 26.1582 -3.39518
113 1 1.40472 5.02485 26.1582 -3.41589
114 1 5.61888 7.45787 26.1696 -3.43423
115 1 0 7.45787 26.1696 -3.43078
116 1 4.21416 5.02485 26.1582 -3.4272
117 1 2.80944 7.45787 26.1696 -3.42461
118 1 7.0236 9.89091 26.181 -3.42731
119 1 1.40472 9.89091 26.181 -3.41656
120 1 5.61888 12.3239 26.1924 -3.41556
121 1 0 12.3239 26.1924 -3.404
122 1 4.21416 9.89091 26.181 -3.4275
123 1 2.80944 12.3239 26.1924 -3.42387
130 1 4.21416 0.158785 26.1354 -3.42145
132 1 7.0236 0.158785 26.1354 -3.4203
134 1 1.40472 0.158785 26.1354 -3.41706
136 1 5.61888 2.59181 26.1468 -3.40886
137 1 0 2.59181 26.1468 -3.41758
138 1 2.80944 2.59181 26.1468 -3.43662
139 1 5.61888 5.81468 30.8164 -3.35104
140 1 0 5.81468 30.8164 -3.35104
141 1 7.0236 8.24771 30.8277 -3.35103
142 1 1.40472 8.24771 30.8277 -3.35103
143 1 4.21416 8.24771 30.8277 -3.35103
144 1 2.80944 5.81468 30.8164 -3.35104
145 1 7.0236 1.77021 28.4702 -3.35207
146 1 1.40472 1.77021 28.4702 -3.35207
147 1 4.21416 1.77021 28.4702 -3.35207
148 1 7.0236 6.63627 28.493 -3.35105
149 1 1.40472 6.63627 28.493 -3.35104
150 1 5.61888 4.20324 28.4816 -3.35108
151 1 0 4.20324 28.4816 -3.35108
152 1 4.21416 6.63627 28.493 -3.35104
153 1 2.80944 4.20324 28.4816 -3.35108
154 1 5.61888 9.06931 28.5044 -3.35104
155 1 0 9.06931 28.5044 -3.35104
156 1 7.0236 11.5023 28.5158 -3.35223
157 1 1.40472 11.5023 28.5158 -3.35223
158 1 4.21416 11.5023 28.5158 -3.35223
159 1 2.80944 9.06931 28.5044 -3.35104
160 1 2.80944 0.94862 30.7936 -3.3559
161 1 2.80944 13.9354 28.5271 -3.34153
162 1 0 0.94862 30.7936 -3.3559
163 1 0 13.9354 28.5271 -3.34154
164 1 5.61888 0.94862 30.7936 -3.3559
165 1 5.61888 13.9354 28.5271 -3.34153
166 1 7.0236 3.38164 30.805 -3.34972
167 1 1.40472 3.38164 30.805 -3.34972
168 1 4.21416 3.38164 30.805 -3.34972
179 1 4.21416 13.1138 30.8505 -3.35589
180 1 5.61888 10.6807 30.8392 -3.34972
181 1 0 10.6807 30.8392 -3.34973
183 1 7.0236 13.1138 30.8505 -3.3559
185 1 1.40472 13.1138 30.8505 -3.35589
186 1 2.80944 10.6807 30.8392 -3.34972
169 1 5.61888 7.42612 33.1512 -3.35104
170 1 0 7.42612 33.1512 -3.35104
171 1 7.0236 9.85914 33.1626 -3.35108
172 1 1.40472 9.85914 33.1626 -3.35108
173 1 4.21416 9.85914 33.1626 -3.35108
174 1 2.80944 7.42612 33.1512 -3.35104
175 1 5.61888 12.2922 33.1739 -3.35206
176 1 0 12.2922 33.1739 -3.35206
177 1 2.80944 12.2922 33.1739 -3.35206
178 1 4.21416 0.127019 33.117 -3.34154
182 1 7.0236 0.127019 33.117 -3.34154
184 1 1.40472 0.127019 33.117 -3.34154
187 1 5.61888 2.56006 33.1284 -3.35222
188 1 0 2.56006 33.1284 -3.35222
189 1 7.0236 4.99308 33.1397 -3.35105
190 1 1.40472 4.99308 33.1397 -3.35104
191 1 4.21416 4.99308 33.1397 -3.35104
192 1 2.80944 2.56006 33.1284 -3.35222
193 1 5.61888 12.2604 40.1555 -2.97112
194 1 0 12.2604 40.1555 -2.97112
195 1 2.80944 12.2604 40.1555 -2.97111
196 1 7.0236 9.82739 40.1441 -2.97446
197 1 1.40472 9.82739 40.1441 -2.97446
198 1 4.21416 9.82739 40.1441 -2.97446
199 1 5.61888 5.78293 37.7979 -3.43976
200 1 0 5.78293 37.7979 -3.43976
201 1 7.0236 8.21595 37.8093 -3.43975
202 1 1.40472 8.21595 37.8093 -3.43975
203 1 4.21416 8.21595 37.8093 -3.43975
204 1 2.80944 5.78293 37.7979 -3.43976
205 1 4.21416 0.095268 40.0985 -2.9788
206 1 4.21416 13.082 37.8321 -3.44396
207 1 5.61888 2.52829 40.11 -2.97213
208 1 0 2.52829 40.11 -2.97213
209 1 5.61888 10.649 37.8207 -3.43844
210 1 0 10.649 37.8207 -3.43844
211 1 7.0236 0.095268 40.0985 -2.97881
212 1 7.0236 13.082 37.8321 -3.44396
213 1 1.40472 0.095268 40.0985 -2.97881
214 1 1.40472 13.082 37.8321 -3.44396
215 1 2.80944 2.52829 40.11 -2.97213
216 1 2.80944 10.649 37.8207 -3.43844
217 1 7.0236 4.96133 40.1213 -2.97443
218 1 1.40472 4.96133 40.1213 -2.97443
219 1 5.61888 7.39435 40.1327 -2.97441
220 1 0 7.39435 40.1327 -2.97442
221 1 4.21416 4.96133 40.1213 -2.97442
222 1 2.80944 7.39435 40.1327 -2.97441
223 1 5.61888 9.03756 35.4859 -3.35104
224 1 0 9.03756 35.4859 -3.35105
225 1 7.0236 11.4706 35.4973 -3.35223
226 1 1.40472 11.4706 35.4973 -3.35223
227 1 4.21416 11.4706 35.4973 -3.35223
228 1 2.80944 9.03756 35.4859 -3.35104
229 1 2.80944 0.916869 37.7751 -3.4418
230 1 2.80944 13.9036 35.5087 -3.34154
231 1 0 0.916869 37.7751 -3.44181
232 1 0 13.9036 35.5087 -3.34155
233 1 5.61888 0.916869 37.7751 -3.4418
234 1 5.61888 13.9036 35.5087 -3.34154
235 1 7.0236 3.34989 37.7865 -3.43844
236 1 1.40472 3.34989 37.7865 -3.43843
237 1 4.21416 3.34989 37.7865 -3.43843
238 1 7.0236 1.73846 35.4518 -3.35208
239 1 1.40472 1.73846 35.4518 -3.35207
240 1 4.21416 1.73846 35.4518 -3.35207
241 1 7.0236 6.60452 35.4745 -3.35104
242 1 1.40472 6.60452 35.4745 -3.35104
243 1 5.61888 4.17149 35.4632 -3.35108
244 1 0 4.17149 35.4632 -3.35108
245 1 4.21416 6.60452 35.4745 -3.35104
246 1 2.80944 4.17149 35.4632 -3.35108
