ITEM: TIMESTEP
429
ITEM: NUMBER OF ATOMS
16
ITEM: BOX BOUNDS ff ff ff
0.0000000000000000e+00 1.8000000000000000e+01
0.0000000000000000e+00 1.8000000000000000e+01
0.0000000000000000e+00 1.8000000000000000e+01
ITEM: ATOMS id type x y z c_peatom 
5 1 9.58903 10.7711 5.795 -3.85733 
6 1 7.86668 6.74395 8.12801 -4.17862 
9 2 8.19825 8.05256 6.86957 -4.55103 
7 1 10.0401 7.90169 6.67756 -3.74961 
1 1 8.13203 9.5636 8.2826 -7.94764 
15 2 6.49769 9.94069 7.85622 -2.65982 
4 1 10.9144 10.5402 8.16842 -4.4575 
12 2 10.8534 9.60576 6.4291 -4.86853 
13 2 9.25267 11.2205 7.53353 -4.38071 
14 2 7.95038 7.93162 9.40062 -3.70217 
11 2 9.76092 7.09643 10.8054 -3.09281 
2 1 10.7911 8.39209 11.0093 -5.78542 
10 2 7.62032 10.0862 10.134 -3.31188 
3 1 9.20867 10.6907 10.7718 -5.18247 
16 2 9.99329 9.49549 9.49175 -4.26096 
8 2 9.56174 9.37377 12.0168 -3.55822 
