ITEM: TIMESTEP
781
ITEM: NUMBER OF ATOMS
18
ITEM: BOX BOUNDS ff ff ff
0.0000000000000000e+00 1.8000000000000000e+01
0.0000000000000000e+00 1.8000000000000000e+01
0.0000000000000000e+00 1.8000000000000000e+01
ITEM: ATOMS id type x y z c_peatom
1 1 6.0559 8.85825 8.5552 -5.16948
2 1 8.57293 7.45962 8.22072 -5.83376
8 2 6.66687 7.13659 8.48632 -3.48649
3 1 11.6424 8.24707 7.90064 -6.7596
9 2 11.1321 8.17143 6.27246 -2.82679
10 2 10.5663 6.69182 8.57091 -3.4458
12 2 7.93769 9.34525 8.25054 -4.07172
4 1 9.71012 10.6105 7.96546 -4.85034
13 2 11.6153 10.297 8.27096 -3.64078
14 2 8.5654 7.4389 10.1234 -3.8978
5 1 10.532 7.28787 10.4608 -5.8541
11 2 10.0198 8.85937 9.05753 -4.29561
15 2 12.0621 8.39435 10.0118 -3.60053
6 1 8.30815 9.40755 10.2715 -6.48992
16 2 6.36117 9.04034 10.3294 -3.4383
7 1 11.2598 10.1537 10.2852 -5.7932
17 2 9.51578 11.0234 9.75087 -3.96493
18 2 10.0335 9.01862 11.3457 -3.61181
