ITEM: TIMESTEP
90
ITEM: NUMBER OF ATOMS
385
ITEM: BOX BOUNDS pp pp pp
0.0000000000000000e+00 8.4283000000000001e+00
0.0000000000000000e+00 1.4598200000000000e+01
0.0000000000000000e+00 4.9476269000000002e+01
ITEM: ATOMS id type x y z c_peatom
77 1 2.92401 12.1652 3.61953 -2.2941
78 1 7.13816 4.86606 3.61953 -2.29409
79 1 5.73344 7.2991 5.31004 -6.5982
80 1 7.13816 9.73214 3.61953 -2.29409
81 1 5.73344 12.1652 5.31004 -6.5982
82 1 7.13816 0 3.61953 -2.29408
83 1 5.73344 2.43304 5.31004 -6.5982
84 1 2.92401 7.2991 3.61953 -2.29408
85 1 1.51929 9.73212 5.31004 -6.59819
86 1 2.92401 2.43304 3.61953 -2.29408
87 1 1.51929 4.86606 5.31004 -6.5982
88 1 1.51929 0 5.31004 -6.59819
89 1 0.114574 7.2991 5.80124 -6.54405
90 1 4.32872 9.73212 5.80124 -6.54404
91 1 2.92401 7.2991 7.4917 -6.40207
92 1 0.114574 12.1652 5.80124 -6.54405
93 1 7.13816 9.73214 7.4917 -6.40206
94 1 4.32872 0 5.80124 -6.54405
95 1 2.92401 12.1652 7.4917 -6.40208
96 1 0.114574 2.43304 5.80124 -6.54404
97 1 7.13816 0 7.4917 -6.40207
98 1 4.32872 4.86606 5.80124 -6.54403
99 1 2.92401 2.43304 7.4917 -6.40207
100 1 7.13816 4.86606 7.4917 -6.40206
101 1 5.73344 12.1652 7.98285 -6.40205
104 1 5.73344 7.2991 7.98285 -6.40204
105 1 1.51929 9.73212 7.98285 -6.40204
108 1 5.73344 2.43304 7.98285 -6.40204
109 1 1.51929 4.86606 7.98285 -6.40204
111 1 1.51929 0 7.98285 -6.40204
113 1 4.32872 9.73212 3.12833 -3.27315
114 1 4.32872 4.86606 3.12833 -3.27316
115 1 0.114574 12.1652 3.12833 -3.27315
116 1 0.114574 2.43304 3.12833 -3.27315
117 1 0.114574 7.2991 3.12833 -3.27315
118 1 4.32872 0 3.12833 -3.27314
328 2 3.03858 10.477 4.46474 -3.32409
329 2 1.40472 12.91 4.46474 -3.32409
330 2 4.32872 13.1085 4.46474 -3.32408
331 2 7.25273 3.1779 4.46474 -3.32408
332 2 0.114574 5.80937 4.46474 -3.32409
333 2 5.61887 5.61093 4.46474 -3.32408
334 2 0.114574 10.6754 4.46474 -3.32409
335 2 5.61887 10.477 4.46474 -3.32408
336 2 7.25273 8.04396 4.46474 -3.32409
337 2 0.114574 0.943306 4.46474 -3.32409
338 2 5.61887 0.744873 4.46474 -3.32408
339 2 7.25273 12.91 4.46474 -3.32408
340 2 1.40472 8.04396 4.46474 -3.32407
341 2 4.32872 8.24241 4.46474 -3.32408
342 2 3.03858 5.61092 4.46474 -3.32409
343 2 1.40472 3.1779 4.46474 -3.32408
344 2 4.32872 3.37635 4.46474 -3.32409
345 2 3.03858 0.744859 4.46474 -3.32408
346 2 0.22914 8.98727 6.64644 -4.12705
347 2 7.02359 6.55424 6.64644 -4.12705
348 2 1.51929 6.35579 6.64644 -4.12705
349 2 5.73344 8.78883 6.64644 -4.12705
350 2 2.80944 8.98727 6.64644 -4.12704
351 2 4.44329 11.4203 6.64644 -4.12706
352 2 0.22914 13.8533 6.64644 -4.12706
353 2 7.02359 11.4203 6.64644 -4.12704
354 2 1.51929 11.2219 6.64644 -4.12706
355 2 4.44329 1.68816 6.64644 -4.12706
356 2 5.73344 13.6549 6.64644 -4.12705
357 2 2.80944 13.8533 6.64644 -4.12705
358 2 0.22914 4.1212 6.64644 -4.12705
359 2 1.51929 1.48973 6.64644 -4.12705
360 2 7.02359 1.68816 6.64644 -4.12705
361 2 2.80944 4.1212 6.64644 -4.12704
362 2 5.73344 3.92275 6.64644 -4.12704
363 2 4.44329 6.55424 6.64644 -4.12706
41 1 5.73344 2.43304 14.5279 -6.40125
42 1 4.32872 4.86606 16.2184 -6.42013
43 1 5.73344 12.1652 14.5279 -6.40126
44 1 5.73344 7.2991 14.5279 -6.40126
45 1 4.32872 9.73212 16.2184 -6.29865
46 1 1.51928 4.86606 14.5279 -6.40124
47 1 0.114574 2.43304 16.2184 -6.37967
48 1 1.51928 0 14.5279 -6.40125
49 1 0.114574 12.1652 16.2184 -6.32964
50 1 1.51928 9.73212 14.5279 -6.40124
51 1 0.114574 7.2991 16.2184 -6.32566
52 1 4.32872 0 16.2184 -6.41603
53 1 2.92401 12.1652 10.1646 -6.40196
54 1 2.92401 7.2991 10.1646 -6.40195
55 1 1.51929 9.73212 11.855 -6.4021
56 1 7.13816 4.86606 10.1646 -6.40194
57 1 5.73344 2.43304 11.855 -6.40212
58 1 7.13816 0 10.1646 -6.40195
59 1 5.73344 12.1652 11.855 -6.40212
60 1 7.13816 9.73214 10.1646 -6.40194
61 1 5.73344 7.2991 11.855 -6.40212
62 1 2.92401 2.43304 10.1646 -6.40195
63 1 1.51929 0 11.855 -6.40212
64 1 1.51929 4.86606 11.855 -6.4021
65 1 4.32872 0 12.3462 -6.40196
66 1 2.92401 2.43304 14.0367 -6.38416
67 1 7.13816 0 14.0367 -6.38415
68 1 0.114574 7.2991 12.3462 -6.40197
69 1 0.114574 2.43304 12.3462 -6.40196
70 1 7.13816 4.86606 14.0367 -6.38415
71 1 4.32872 4.86606 12.3462 -6.40196
72 1 2.92401 7.2991 14.0367 -6.38417
73 1 0.114574 12.1652 12.3462 -6.40197
74 1 4.32872 9.73212 12.3462 -6.40196
75 1 7.13816 9.73214 14.0367 -6.38415
76 1 2.92401 12.1652 14.0367 -6.38418
102 1 0.114574 12.1652 9.67335 -6.40208
103 1 4.32872 9.73212 9.67335 -6.40207
106 1 0.114574 7.2991 9.67335 -6.40207
107 1 4.32872 4.86606 9.67335 -6.40207
110 1 0.114574 2.43304 9.67335 -6.40207
112 1 4.32872 0 9.67335 -6.40207
274 2 5.84801 4.1212 15.3731 -4.12743
275 2 7.13816 1.48973 15.3731 -4.12743
276 2 4.21415 1.68818 15.3731 -4.12744
277 2 5.84801 13.8533 15.3731 -4.12743
278 2 7.13816 11.2219 15.3731 -4.12743
279 2 4.21415 11.4203 15.3731 -4.12745
280 2 5.84801 8.98727 15.3731 -4.12743
281 2 7.13816 6.35579 15.3731 -4.12744
282 2 4.21415 6.55424 15.3731 -4.12745
283 2 0 4.1212 15.3731 -4.12742
284 2 2.92401 3.92275 15.3731 -4.12744
285 2 1.63386 6.55424 15.3731 -4.12744
286 2 1.63386 1.68816 15.3731 -4.12743
287 2 0 13.8533 15.3731 -4.12744
288 2 2.92401 13.6549 15.3731 -4.12745
289 2 0 8.98727 15.3731 -4.12744
290 2 2.92401 8.78882 15.3731 -4.12744
291 2 1.63386 11.4203 15.3731 -4.12744
292 2 3.03858 13.8533 11.0098 -4.12708
293 2 1.40472 11.4203 11.0098 -4.12708
294 2 4.32872 11.2219 11.0098 -4.12709
295 2 3.03858 8.98727 11.0098 -4.12707
296 2 1.40472 6.55424 11.0098 -4.12709
297 2 4.32872 6.35579 11.0098 -4.12709
298 2 5.61887 4.1212 11.0098 -4.12707
299 2 0.114574 3.92275 11.0098 -4.12708
300 2 7.25273 6.55424 11.0098 -4.12709
301 2 0.114574 13.6549 11.0098 -4.12709
302 2 5.61887 13.8533 11.0098 -4.12707
303 2 7.25273 1.68818 11.0098 -4.12709
304 2 7.25273 11.4203 11.0098 -4.12707
305 2 5.61887 8.98727 11.0098 -4.12708
306 2 0.114574 8.78882 11.0098 -4.12709
307 2 3.03858 4.1212 11.0098 -4.12707
308 2 4.32872 1.48973 11.0098 -4.12708
309 2 1.40472 1.68816 11.0098 -4.12708
310 2 5.73344 0.943306 13.1914 -4.12709
311 2 2.80944 0.744873 13.1914 -4.12708
312 2 4.44329 12.91 13.1914 -4.1271
313 2 0.22914 5.61093 13.1914 -4.12709
314 2 7.02359 8.04396 13.1914 -4.12709
315 2 1.51929 8.24241 13.1914 -4.12708
316 2 0.22914 0.744873 13.1914 -4.12709
317 2 7.02359 3.1779 13.1914 -4.12708
318 2 1.51929 3.37635 13.1914 -4.12708
319 2 4.44329 3.1779 13.1914 -4.12709
320 2 5.73344 5.80937 13.1914 -4.1271
321 2 2.80944 5.61093 13.1914 -4.12709
322 2 0.22914 10.477 13.1914 -4.12709
323 2 7.02359 12.91 13.1914 -4.12709
324 2 1.51929 13.1085 13.1914 -4.12709
325 2 4.44329 8.04396 13.1914 -4.12709
326 2 5.73344 10.6754 13.1914 -4.12709
327 2 2.80944 10.477 13.1914 -4.12709
364 2 5.84801 10.477 8.8281 -4.12712
365 2 7.13816 13.1085 8.8281 -4.12713
366 2 0 10.477 8.8281 -4.12713
367 2 1.63386 12.91 8.8281 -4.12713
368 2 4.21415 8.04396 8.8281 -4.12713
369 2 5.84801 5.61093 8.8281 -4.12712
370 2 7.13816 8.24241 8.8281 -4.12713
371 2 1.63386 8.04396 8.8281 -4.12711
372 2 2.92401 10.6754 8.8281 -4.12713
373 2 4.21415 3.1779 8.8281 -4.12712
374 2 5.84801 0.744873 8.8281 -4.12712
375 2 7.13816 3.37635 8.8281 -4.12712
376 2 1.63386 3.1779 8.8281 -4.12711
377 2 2.92401 5.80937 8.8281 -4.12713
378 2 2.92401 0.943306 8.8281 -4.12713
379 2 4.21415 12.91 8.8281 -4.12713
380 2 0 0.744859 8.8281 -4.12713
381 2 0 5.61092 8.8281 -4.12714
1 1 5.61888 0.980371 23.812 -2.95843
2 1 0 0.980371 23.812 -3.0891
3 1 2.80944 0.980371 23.812 -2.95662
4 1 5.61888 5.84643 23.8348 -2.93632
5 1 0 5.84643 23.8348 -3.25715
6 1 7.0236 3.41341 23.8235 -2.95252
7 1 1.40472 3.41341 23.8235 -3.06027
8 1 4.21416 3.41341 23.8235 -2.96771
9 1 2.80944 5.84643 23.8348 -3.13106
22 1 0.00942867 13.0473 21.5922 -2.24868
23 1 6.03696 12.6458 20.5643 -2.57486
24 1 3.82887 9.44614 21.4152 -3.6714
25 1 2.92401 12.1652 19.0018 -5.71723
26 1 7.13816 9.73214 19.0018 -6.04911
27 1 0.915485 10.2849 20.8861 -4.29459
28 1 4.32872 4.86606 18.5106 -2.96231
29 1 2.92401 7.2991 16.7095 -6.50482
30 1 6.65202 10.1558 21.5204 -3.03908
31 1 4.32872 9.73212 18.5106 -7.58407
32 1 2.92401 12.1652 16.7095 -6.47603
33 1 0.114574 12.1652 18.5106 -5.59332
34 1 0.114574 7.2991 18.5106 -5.68497
35 1 7.13816 9.73214 16.7095 -6.40497
36 1 0.114574 2.43304 18.5106 -4.11151
37 1 7.13816 4.86606 16.7095 -6.61972
38 1 4.32872 0 18.5106 -2.9981
39 1 2.92401 2.43304 16.7095 -6.56877
40 1 7.13816 0 16.7095 -6.59582
119 1 7.13816 4.86606 19.0018 -2.42953
120 1 2.92401 2.43304 19.0018 -3.33854
121 1 2.92401 7.2991 19.0018 -5.13837
122 1 7.13816 0 19.0018 -2.73819
123 1 8.37075 7.92095 21.116 -2.61492
124 1 1.04732 5.75108 21.4219 -1.96482
125 1 2.80944 10.7125 23.8576 -3.08287
126 1 5.61888 10.7125 23.8576 -3.17859
127 1 0 10.7125 23.8576 -3.26095
128 1 7.0236 8.27947 23.8462 -3.18029
129 1 1.40472 8.27947 23.8462 -3.09126
130 1 4.21416 8.27947 23.8462 -3.11829
132 1 4.21416 13.1455 23.869 -2.93615
134 1 7.0236 13.1455 23.869 -3.26654
136 1 1.40472 13.1455 23.869 -3.20383
248 2 6.8883 2.51856 21.0468 -2.58182
249 2 5.98363 1.72058 21.0342 -2.58182
250 2 1.47711 1.30573 19.1089 -2.91749
251 2 4.95723 11.7547 19.0433 -2.43374
252 2 3.61249 10.8118 20.1152 -2.96214
253 2 7.33931 11.2474 19.9111 -3.2233
254 2 1.43288 11.0976 19.3029 -3.45653
255 2 4.32872 3.37635 17.5548 -3.31047
256 2 3.03858 5.61093 17.5548 -3.43354
257 2 5.61887 5.61093 17.5548 -3.24838
258 2 5.51068 9.25394 19.9673 -3.12783
259 2 4.32872 8.24241 17.5548 -3.5835
260 2 3.03858 10.477 17.5548 -4.54636
261 2 5.61887 10.477 17.5548 -3.88979
262 2 1.40472 12.91 17.5548 -3.65515
263 2 7.25273 12.91 17.5548 -3.42638
264 2 0.114574 10.6754 17.5548 -4.13491
265 2 0.114574 5.80937 17.5548 -3.46653
266 2 1.40472 8.04397 17.5548 -4.03205
267 2 7.25273 8.04397 17.5548 -3.85812
268 2 1.40472 3.1779 17.5548 -3.70823
269 2 7.25273 3.1779 17.5548 -3.34277
270 2 0.114574 0.943306 17.5548 -3.50206
271 2 4.32872 13.1085 17.5548 -3.29446
272 2 3.03858 0.744873 17.5548 -3.62615
273 2 5.61887 0.744873 17.5548 -3.24793
382 2 2.6561 9.02418 19.7926 -3.17817
383 2 1.36417 6.70317 19.7528 -2.7227
384 2 0.361304 9.04314 19.5162 -3.70427
385 2 1.59964 1.1879 20.3781 -1.82433
10 1 7.0236 5.02485 26.1582 -3.41426
11 1 1.40472 5.02485 26.1582 -3.41551
12 1 5.61888 7.45787 26.1696 -3.40203
13 1 0 7.45787 26.1696 -3.40229
14 1 4.21416 5.02485 26.1582 -3.42652
15 1 2.80944 7.45787 26.1696 -3.40444
16 1 7.0236 9.89091 26.181 -3.38644
17 1 1.40472 9.89091 26.181 -3.39083
18 1 5.61888 12.3239 26.1924 -3.39536
19 1 0 12.3239 26.1924 -3.39425
20 1 4.21416 9.89091 26.181 -3.40256
21 1 2.80944 12.3239 26.1924 -3.40645
131 1 4.21416 0.158785 26.1354 -3.43219
133 1 7.0236 0.158785 26.1354 -3.41148
135 1 1.40472 0.158785 26.1354 -3.41745
137 1 5.61888 2.59181 26.1468 -3.44171
138 1 0 2.59181 26.1468 -3.4256
139 1 2.80944 2.59181 26.1468 -3.43372
140 1 5.61888 5.81468 30.8164 -3.35104
141 1 0 5.81468 30.8164 -3.35104
142 1 7.0236 8.24771 30.8277 -3.35103
143 1 1.40472 8.24771 30.8277 -3.35103
144 1 4.21416 8.24771 30.8277 -3.35103
145 1 2.80944 5.81468 30.8164 -3.35104
146 1 7.0236 1.77021 28.4702 -3.35207
147 1 1.40472 1.77021 28.4702 -3.35207
148 1 4.21416 1.77021 28.4702 -3.35207
149 1 7.0236 6.63627 28.493 -3.35105
150 1 1.40472 6.63627 28.493 -3.35104
151 1 5.61888 4.20324 28.4816 -3.35108
152 1 0 4.20324 28.4816 -3.35108
153 1 4.21416 6.63627 28.493 -3.35104
154 1 2.80944 4.20324 28.4816 -3.35108
155 1 5.61888 9.06931 28.5044 -3.35104
156 1 0 9.06931 28.5044 -3.35104
157 1 7.0236 11.5023 28.5158 -3.35223
158 1 1.40472 11.5023 28.5158 -3.35223
159 1 4.21416 11.5023 28.5158 -3.35223
160 1 2.80944 9.06931 28.5044 -3.35104
161 1 2.80944 0.94862 30.7936 -3.3559
162 1 2.80944 13.9354 28.5271 -3.34153
163 1 0 0.94862 30.7936 -3.3559
164 1 0 13.9354 28.5271 -3.34154
165 1 5.61888 0.94862 30.7936 -3.3559
166 1 5.61888 13.9354 28.5271 -3.34153
167 1 7.0236 3.38164 30.805 -3.34972
168 1 1.40472 3.38164 30.805 -3.34972
169 1 4.21416 3.38164 30.805 -3.34972
180 1 4.21416 13.1138 30.8505 -3.35589
181 1 5.61888 10.6807 30.8392 -3.34972
182 1 0 10.6807 30.8392 -3.34973
184 1 7.0236 13.1138 30.8505 -3.3559
186 1 1.40472 13.1138 30.8505 -3.35589
187 1 2.80944 10.6807 30.8392 -3.34972
170 1 5.61888 7.42612 33.1512 -3.35104
171 1 0 7.42612 33.1512 -3.35104
172 1 7.0236 9.85914 33.1626 -3.35108
173 1 1.40472 9.85914 33.1626 -3.35108
174 1 4.21416 9.85914 33.1626 -3.35108
175 1 2.80944 7.42612 33.1512 -3.35104
176 1 5.61888 12.2922 33.1739 -3.35206
177 1 0 12.2922 33.1739 -3.35206
178 1 2.80944 12.2922 33.1739 -3.35206
179 1 4.21416 0.127019 33.117 -3.34154
183 1 7.0236 0.127019 33.117 -3.34154
185 1 1.40472 0.127019 33.117 -3.34154
188 1 5.61888 2.56006 33.1284 -3.35222
189 1 0 2.56006 33.1284 -3.35222
190 1 7.0236 4.99308 33.1397 -3.35105
191 1 1.40472 4.99308 33.1397 -3.35104
192 1 4.21416 4.99308 33.1397 -3.35104
193 1 2.80944 2.56006 33.1284 -3.35222
194 1 5.61888 12.2604 40.1555 -2.97112
195 1 0 12.2604 40.1555 -2.97112
196 1 2.80944 12.2604 40.1555 -2.97111
197 1 7.0236 9.82739 40.1441 -2.97446
198 1 1.40472 9.82739 40.1441 -2.97446
199 1 4.21416 9.82739 40.1441 -2.97446
200 1 5.61888 5.78293 37.7979 -3.43976
201 1 0 5.78293 37.7979 -3.43976
202 1 7.0236 8.21595 37.8093 -3.43975
203 1 1.40472 8.21595 37.8093 -3.43975
204 1 4.21416 8.21595 37.8093 -3.43975
205 1 2.80944 5.78293 37.7979 -3.43976
206 1 4.21416 0.095268 40.0985 -2.9788
207 1 4.21416 13.082 37.8321 -3.44396
208 1 5.61888 2.52829 40.11 -2.97213
209 1 0 2.52829 40.11 -2.97213
210 1 5.61888 10.649 37.8207 -3.43844
211 1 0 10.649 37.8207 -3.43844
212 1 7.0236 0.095268 40.0985 -2.97881
213 1 7.0236 13.082 37.8321 -3.44396
214 1 1.40472 0.095268 40.0985 -2.97881
215 1 1.40472 13.082 37.8321 -3.44396
216 1 2.80944 2.52829 40.11 -2.97213
217 1 2.80944 10.649 37.8207 -3.43844
218 1 7.0236 4.96133 40.1213 -2.97443
219 1 1.40472 4.96133 40.1213 -2.97443
220 1 5.61888 7.39435 40.1327 -2.97441
221 1 0 7.39435 40.1327 -2.97442
222 1 4.21416 4.96133 40.1213 -2.97442
223 1 2.80944 7.39435 40.1327 -2.97441
224 1 5.61888 9.03756 35.4859 -3.35104
225 1 0 9.03756 35.4859 -3.35105
226 1 7.0236 11.4706 35.4973 -3.35223
227 1 1.40472 11.4706 35.4973 -3.35223
228 1 4.21416 11.4706 35.4973 -3.35223
229 1 2.80944 9.03756 35.4859 -3.35104
230 1 2.80944 0.916869 37.7751 -3.4418
231 1 2.80944 13.9036 35.5087 -3.34154
232 1 0 0.916869 37.7751 -3.44181
233 1 0 13.9036 35.5087 -3.34155
234 1 5.61888 0.916869 37.7751 -3.4418
235 1 5.61888 13.9036 35.5087 -3.34154
236 1 7.0236 3.34989 37.7865 -3.43844
237 1 1.40472 3.34989 37.7865 -3.43843
238 1 4.21416 3.34989 37.7865 -3.43843
239 1 7.0236 1.73846 35.4518 -3.35208
240 1 1.40472 1.73846 35.4518 -3.35207
241 1 4.21416 1.73846 35.4518 -3.35207
242 1 7.0236 6.60452 35.4745 -3.35104
243 1 1.40472 6.60452 35.4745 -3.35104
244 1 5.61888 4.17149 35.4632 -3.35108
245 1 0 4.17149 35.4632 -3.35108
246 1 4.21416 6.60452 35.4745 -3.35104
247 1 2.80944 4.17149 35.4632 -3.35108
