ITEM: TIMESTEP
18
ITEM: NUMBER OF ATOMS
386
ITEM: BOX BOUNDS pp pp pp
0.0000000000000000e+00 8.4283000000000001e+00
0.0000000000000000e+00 1.4598200000000000e+01
0.0000000000000000e+00 4.9476269000000002e+01
ITEM: ATOMS id type x y z c_peatom
62 1 2.92401 12.1652 3.61953 -2.2941
63 1 7.13816 4.86606 3.61953 -2.29409
64 1 5.73344 7.2991 5.31004 -6.5982
65 1 7.13816 9.73214 3.61953 -2.29409
66 1 5.73344 12.1652 5.31004 -6.5982
67 1 7.13816 0 3.61953 -2.29408
68 1 5.73344 2.43304 5.31004 -6.5982
69 1 2.92401 7.2991 3.61953 -2.29408
70 1 1.51929 9.73212 5.31004 -6.59819
71 1 2.92401 2.43304 3.61953 -2.29408
72 1 1.51929 4.86606 5.31004 -6.5982
73 1 1.51929 0 5.31004 -6.59819
74 1 0.114574 7.2991 5.80124 -6.54405
75 1 4.32872 9.73212 5.80124 -6.54404
76 1 2.92401 7.2991 7.4917 -6.40207
77 1 0.114574 12.1652 5.80124 -6.54405
78 1 7.13816 9.73214 7.4917 -6.40206
79 1 4.32872 0 5.80124 -6.54405
80 1 2.92401 12.1652 7.4917 -6.40208
81 1 0.114574 2.43304 5.80124 -6.54404
82 1 7.13816 0 7.4917 -6.40207
83 1 4.32872 4.86606 5.80124 -6.54403
84 1 2.92401 2.43304 7.4917 -6.40207
85 1 7.13816 4.86606 7.4917 -6.40206
86 1 5.73344 12.1652 7.98285 -6.40205
89 1 5.73344 7.2991 7.98285 -6.40204
90 1 1.51929 9.73212 7.98285 -6.40204
93 1 5.73344 2.43304 7.98285 -6.40204
94 1 1.51929 4.86606 7.98285 -6.40204
96 1 1.51929 0 7.98285 -6.40204
98 1 4.32872 9.73212 3.12833 -3.27315
99 1 4.32872 4.86606 3.12833 -3.27316
100 1 0.114574 12.1652 3.12833 -3.27315
101 1 0.114574 2.43304 3.12833 -3.27315
102 1 0.114574 7.2991 3.12833 -3.27315
103 1 4.32872 0 3.12833 -3.27314
333 2 3.03858 10.477 4.46474 -3.32409
334 2 1.40472 12.91 4.46474 -3.32409
335 2 4.32872 13.1085 4.46474 -3.32408
336 2 7.25273 3.1779 4.46474 -3.32408
337 2 0.114574 5.80937 4.46474 -3.32409
338 2 5.61887 5.61093 4.46474 -3.32408
339 2 0.114574 10.6754 4.46474 -3.32409
340 2 5.61887 10.477 4.46474 -3.32408
341 2 7.25273 8.04396 4.46474 -3.32409
342 2 0.114574 0.943306 4.46474 -3.32409
343 2 5.61887 0.744873 4.46474 -3.32408
344 2 7.25273 12.91 4.46474 -3.32408
345 2 1.40472 8.04396 4.46474 -3.32407
346 2 4.32872 8.24241 4.46474 -3.32408
347 2 3.03858 5.61092 4.46474 -3.32409
348 2 1.40472 3.1779 4.46474 -3.32408
349 2 4.32872 3.37635 4.46474 -3.32409
350 2 3.03858 0.744859 4.46474 -3.32408
351 2 0.22914 8.98727 6.64644 -4.12705
352 2 7.02359 6.55424 6.64644 -4.12705
353 2 1.51929 6.35579 6.64644 -4.12705
354 2 5.73344 8.78883 6.64644 -4.12705
355 2 2.80944 8.98727 6.64644 -4.12704
356 2 4.44329 11.4203 6.64644 -4.12706
357 2 0.22914 13.8533 6.64644 -4.12706
358 2 7.02359 11.4203 6.64644 -4.12704
359 2 1.51929 11.2219 6.64644 -4.12706
360 2 4.44329 1.68816 6.64644 -4.12706
361 2 5.73344 13.6549 6.64644 -4.12705
362 2 2.80944 13.8533 6.64644 -4.12705
363 2 0.22914 4.1212 6.64644 -4.12705
364 2 1.51929 1.48973 6.64644 -4.12705
365 2 7.02359 1.68816 6.64644 -4.12705
366 2 2.80944 4.1212 6.64644 -4.12704
367 2 5.73344 3.92275 6.64644 -4.12704
368 2 4.44329 6.55424 6.64644 -4.12706
26 1 5.73344 2.43304 14.5279 -6.40125
27 1 4.32872 4.86606 16.2184 -6.29787
28 1 5.73344 12.1652 14.5279 -6.40126
29 1 5.73344 7.2991 14.5279 -6.40126
30 1 4.32872 9.73212 16.2184 -6.36896
31 1 1.51928 4.86606 14.5279 -6.40124
32 1 0.114574 2.43304 16.2184 -6.35961
33 1 1.51928 0 14.5279 -6.40125
34 1 0.114574 12.1652 16.2184 -6.32983
35 1 1.51928 9.73212 14.5279 -6.40124
36 1 0.114574 7.2991 16.2184 -6.33466
37 1 4.32872 0 16.2184 -6.30124
38 1 2.92401 12.1652 10.1646 -6.40196
39 1 2.92401 7.2991 10.1646 -6.40195
40 1 1.51929 9.73212 11.855 -6.4021
41 1 7.13816 4.86606 10.1646 -6.40194
42 1 5.73344 2.43304 11.855 -6.40212
43 1 7.13816 0 10.1646 -6.40195
44 1 5.73344 12.1652 11.855 -6.40212
45 1 7.13816 9.73214 10.1646 -6.40194
46 1 5.73344 7.2991 11.855 -6.40212
47 1 2.92401 2.43304 10.1646 -6.40195
48 1 1.51929 0 11.855 -6.40212
49 1 1.51929 4.86606 11.855 -6.4021
50 1 4.32872 0 12.3462 -6.40196
51 1 2.92401 2.43304 14.0367 -6.38416
52 1 7.13816 0 14.0367 -6.38415
53 1 0.114574 7.2991 12.3462 -6.40197
54 1 0.114574 2.43304 12.3462 -6.40196
55 1 7.13816 4.86606 14.0367 -6.38415
56 1 4.32872 4.86606 12.3462 -6.40196
57 1 2.92401 7.2991 14.0367 -6.38417
58 1 0.114574 12.1652 12.3462 -6.40197
59 1 4.32872 9.73212 12.3462 -6.40196
60 1 7.13816 9.73214 14.0367 -6.38415
61 1 2.92401 12.1652 14.0367 -6.38418
87 1 0.114574 12.1652 9.67335 -6.40208
88 1 4.32872 9.73212 9.67335 -6.40207
91 1 0.114574 7.2991 9.67335 -6.40207
92 1 4.32872 4.86606 9.67335 -6.40207
95 1 0.114574 2.43304 9.67335 -6.40207
97 1 4.32872 0 9.67335 -6.40207
279 2 5.84801 4.1212 15.3731 -4.12743
280 2 7.13816 1.48973 15.3731 -4.12743
281 2 4.21415 1.68818 15.3731 -4.12744
282 2 5.84801 13.8533 15.3731 -4.12743
283 2 7.13816 11.2219 15.3731 -4.12743
284 2 4.21415 11.4203 15.3731 -4.12745
285 2 5.84801 8.98727 15.3731 -4.12743
286 2 7.13816 6.35579 15.3731 -4.12744
287 2 4.21415 6.55424 15.3731 -4.12745
288 2 0 4.1212 15.3731 -4.12742
289 2 2.92401 3.92275 15.3731 -4.12744
290 2 1.63386 6.55424 15.3731 -4.12744
291 2 1.63386 1.68816 15.3731 -4.12743
292 2 0 13.8533 15.3731 -4.12744
293 2 2.92401 13.6549 15.3731 -4.12745
294 2 0 8.98727 15.3731 -4.12744
295 2 2.92401 8.78882 15.3731 -4.12744
296 2 1.63386 11.4203 15.3731 -4.12744
297 2 3.03858 13.8533 11.0098 -4.12708
298 2 1.40472 11.4203 11.0098 -4.12708
299 2 4.32872 11.2219 11.0098 -4.12709
300 2 3.03858 8.98727 11.0098 -4.12707
301 2 1.40472 6.55424 11.0098 -4.12709
302 2 4.32872 6.35579 11.0098 -4.12709
303 2 5.61887 4.1212 11.0098 -4.12707
304 2 0.114574 3.92275 11.0098 -4.12708
305 2 7.25273 6.55424 11.0098 -4.12709
306 2 0.114574 13.6549 11.0098 -4.12709
307 2 5.61887 13.8533 11.0098 -4.12707
308 2 7.25273 1.68818 11.0098 -4.12709
309 2 7.25273 11.4203 11.0098 -4.12707
310 2 5.61887 8.98727 11.0098 -4.12708
311 2 0.114574 8.78882 11.0098 -4.12709
312 2 3.03858 4.1212 11.0098 -4.12707
313 2 4.32872 1.48973 11.0098 -4.12708
314 2 1.40472 1.68816 11.0098 -4.12708
315 2 5.73344 0.943306 13.1914 -4.12709
316 2 2.80944 0.744873 13.1914 -4.12708
317 2 4.44329 12.91 13.1914 -4.1271
318 2 0.22914 5.61093 13.1914 -4.12709
319 2 7.02359 8.04396 13.1914 -4.12709
320 2 1.51929 8.24241 13.1914 -4.12708
321 2 0.22914 0.744873 13.1914 -4.12709
322 2 7.02359 3.1779 13.1914 -4.12708
323 2 1.51929 3.37635 13.1914 -4.12708
324 2 4.44329 3.1779 13.1914 -4.12709
325 2 5.73344 5.80937 13.1914 -4.1271
326 2 2.80944 5.61093 13.1914 -4.12709
327 2 0.22914 10.477 13.1914 -4.12709
328 2 7.02359 12.91 13.1914 -4.12709
329 2 1.51929 13.1085 13.1914 -4.12709
330 2 4.44329 8.04396 13.1914 -4.12709
331 2 5.73344 10.6754 13.1914 -4.12709
332 2 2.80944 10.477 13.1914 -4.12709
369 2 5.84801 10.477 8.8281 -4.12712
370 2 7.13816 13.1085 8.8281 -4.12713
371 2 0 10.477 8.8281 -4.12713
372 2 1.63386 12.91 8.8281 -4.12713
373 2 4.21415 8.04396 8.8281 -4.12713
374 2 5.84801 5.61093 8.8281 -4.12712
375 2 7.13816 8.24241 8.8281 -4.12713
376 2 1.63386 8.04396 8.8281 -4.12711
377 2 2.92401 10.6754 8.8281 -4.12713
378 2 4.21415 3.1779 8.8281 -4.12712
379 2 5.84801 0.744873 8.8281 -4.12712
380 2 7.13816 3.37635 8.8281 -4.12712
381 2 1.63386 3.1779 8.8281 -4.12711
382 2 2.92401 5.80937 8.8281 -4.12713
383 2 2.92401 0.943306 8.8281 -4.12713
384 2 4.21415 12.91 8.8281 -4.12713
385 2 0 0.744859 8.8281 -4.12713
386 2 0 5.61092 8.8281 -4.12714
1 1 4.32872 9.73212 18.5106 -4.12643
2 1 4.32872 4.86606 18.5106 -7.39497
3 1 0.114574 12.1652 18.5106 -5.61931
4 1 0.114574 7.2991 18.5106 -5.61354
5 1 0.114574 2.43304 18.5106 -5.48881
6 1 4.32872 0 18.5106 -7.4367
7 1 7.13816 4.86606 19.0018 -5.96568
8 1 4.39272 4.99002 21.1652 -3.59746
9 1 2.92401 7.2991 19.0018 -3.80288
10 1 0.0688339 7.27216 21.0248 -2.48481
11 1 7.10252 9.70519 21.3989 -3.4285
12 1 7.13816 9.73214 19.0018 -6.42018
13 1 4.35348 9.71501 20.9821 -1.91077
14 1 2.92401 12.1652 19.0018 -3.82496
15 1 4.24362 -0.111528 21.1613 -3.51618
16 1 2.98574 2.41863 21.4352 -3.29304
17 1 2.92401 2.43304 19.0018 -6.26037
18 1 0.0850751 12.164 21.0412 -2.47121
19 1 7.13816 0 19.0018 -4.86244
20 1 2.92401 12.1652 16.7095 -6.53583
21 1 7.13816 4.86606 16.7095 -6.45455
22 1 7.13816 9.73214 16.7095 -6.43291
23 1 2.92401 2.43304 16.7095 -6.4145
24 1 2.92401 7.2991 16.7095 -6.53717
25 1 7.13816 0 16.7095 -6.48814
116 1 7.0236 8.27947 23.8462 -3.19578
117 1 1.40472 8.27947 23.8462 -3.04491
118 1 5.61888 10.7125 23.8576 -3.18773
119 1 0 10.7125 23.8576 -3.2093
120 1 4.21416 8.27947 23.8462 -3.08808
121 1 2.80944 10.7125 23.8576 -3.04852
123 1 4.21416 13.1455 23.869 -3.10132
125 1 7.0236 13.1455 23.869 -3.04544
127 1 1.40472 13.1455 23.869 -3.06228
131 1 5.61888 0.980371 23.812 -3.04977
132 1 0 0.980371 23.812 -2.9449
133 1 2.80944 0.980371 23.812 -3.22139
134 1 7.0236 3.41341 23.8235 -2.94269
135 1 1.40472 3.41341 23.8235 -3.09382
136 1 5.61888 5.84643 23.8348 -3.08205
137 1 0 5.84643 23.8348 -3.08975
138 1 4.21416 3.41341 23.8235 -3.22214
139 1 2.80944 5.84643 23.8348 -3.04091
248 2 4.32872 8.24241 17.5548 -3.5696
249 2 5.61887 10.477 17.5548 -3.82325
250 2 3.03858 10.477 17.5548 -3.45392
251 2 4.32872 3.37635 17.5548 -4.04126
252 2 5.61887 5.61093 17.5548 -4.10189
253 2 3.03858 5.61093 17.5548 -3.81948
254 2 1.40472 12.91 17.5548 -3.67564
255 2 7.25273 12.91 17.5548 -3.95514
256 2 0.114574 10.6754 17.5548 -3.90189
257 2 0.114574 5.80937 17.5548 -4.00516
258 2 1.40472 8.04397 17.5548 -3.54634
259 2 7.25273 8.04397 17.5548 -4.02361
260 2 1.40472 3.1779 17.5548 -3.97249
261 2 7.25273 3.1779 17.5548 -3.91813
262 2 0.114574 0.943306 17.5548 -3.69242
263 2 4.32872 13.1085 17.5548 -3.88784
264 2 3.03858 0.744873 17.5548 -4.06997
265 2 5.61887 0.744873 17.5548 -3.86475
266 2 1.55817 1.66356 19.8752 -2.5303
267 2 0.364252 4.10839 19.5271 -2.03092
268 2 5.55523 4.13286 19.7514 -2.9589
269 2 3.05444 4.10601 19.8688 -3.42941
270 2 4.43927 6.33963 19.6489 -3.08244
271 2 7.05052 6.71227 19.6428 -2.61872
272 2 0.0428258 8.84594 19.82 -3.07253
273 2 5.73125 8.83802 19.7812 -2.68143
274 2 5.56672 13.6906 19.7062 -2.962
275 2 2.98205 13.9562 19.6421 -3.10647
276 2 4.32135 1.49805 19.8725 -3.51346
277 2 7.08052 11.4617 19.7597 -2.95979
278 2 0.0461901 13.5904 19.6826 -2.6325
104 1 7.0236 5.02485 26.1582 -3.41894
105 1 1.40472 5.02485 26.1582 -3.40974
106 1 5.61888 7.45787 26.1696 -3.39749
107 1 0 7.45787 26.1696 -3.42002
108 1 4.21416 5.02485 26.1582 -3.41675
109 1 2.80944 7.45787 26.1696 -3.41243
110 1 7.0236 9.89091 26.181 -3.39833
111 1 1.40472 9.89091 26.181 -3.4024
112 1 5.61888 12.3239 26.1924 -3.40083
113 1 0 12.3239 26.1924 -3.42214
114 1 4.21416 9.89091 26.181 -3.42418
115 1 2.80944 12.3239 26.1924 -3.41259
122 1 4.21416 0.158785 26.1354 -3.40924
124 1 7.0236 0.158785 26.1354 -3.41483
126 1 1.40472 0.158785 26.1354 -3.39942
128 1 5.61888 2.59181 26.1468 -3.40972
129 1 0 2.59181 26.1468 -3.43144
130 1 2.80944 2.59181 26.1468 -3.40422
140 1 5.61888 5.81468 30.8164 -3.35104
141 1 0 5.81468 30.8164 -3.35104
142 1 7.0236 8.24771 30.8277 -3.35103
143 1 1.40472 8.24771 30.8277 -3.35103
144 1 4.21416 8.24771 30.8277 -3.35103
145 1 2.80944 5.81468 30.8164 -3.35104
146 1 7.0236 1.77021 28.4702 -3.35207
147 1 1.40472 1.77021 28.4702 -3.35207
148 1 4.21416 1.77021 28.4702 -3.35207
149 1 7.0236 6.63627 28.493 -3.35105
150 1 1.40472 6.63627 28.493 -3.35104
151 1 5.61888 4.20324 28.4816 -3.35108
152 1 0 4.20324 28.4816 -3.35108
153 1 4.21416 6.63627 28.493 -3.35104
154 1 2.80944 4.20324 28.4816 -3.35108
155 1 5.61888 9.06931 28.5044 -3.35104
156 1 0 9.06931 28.5044 -3.35104
157 1 7.0236 11.5023 28.5158 -3.35223
158 1 1.40472 11.5023 28.5158 -3.35223
159 1 4.21416 11.5023 28.5158 -3.35223
160 1 2.80944 9.06931 28.5044 -3.35104
161 1 2.80944 0.94862 30.7936 -3.3559
162 1 2.80944 13.9354 28.5271 -3.34153
163 1 0 0.94862 30.7936 -3.3559
164 1 0 13.9354 28.5271 -3.34154
165 1 5.61888 0.94862 30.7936 -3.3559
166 1 5.61888 13.9354 28.5271 -3.34153
167 1 7.0236 3.38164 30.805 -3.34972
168 1 1.40472 3.38164 30.805 -3.34972
169 1 4.21416 3.38164 30.805 -3.34972
180 1 4.21416 13.1138 30.8505 -3.35589
181 1 5.61888 10.6807 30.8392 -3.34972
182 1 0 10.6807 30.8392 -3.34973
184 1 7.0236 13.1138 30.8505 -3.3559
186 1 1.40472 13.1138 30.8505 -3.35589
187 1 2.80944 10.6807 30.8392 -3.34972
170 1 5.61888 7.42612 33.1512 -3.35104
171 1 0 7.42612 33.1512 -3.35104
172 1 7.0236 9.85914 33.1626 -3.35108
173 1 1.40472 9.85914 33.1626 -3.35108
174 1 4.21416 9.85914 33.1626 -3.35108
175 1 2.80944 7.42612 33.1512 -3.35104
176 1 5.61888 12.2922 33.1739 -3.35206
177 1 0 12.2922 33.1739 -3.35206
178 1 2.80944 12.2922 33.1739 -3.35206
179 1 4.21416 0.127019 33.117 -3.34154
183 1 7.0236 0.127019 33.117 -3.34154
185 1 1.40472 0.127019 33.117 -3.34154
188 1 5.61888 2.56006 33.1284 -3.35222
189 1 0 2.56006 33.1284 -3.35222
190 1 7.0236 4.99308 33.1397 -3.35105
191 1 1.40472 4.99308 33.1397 -3.35104
192 1 4.21416 4.99308 33.1397 -3.35104
193 1 2.80944 2.56006 33.1284 -3.35222
194 1 5.61888 12.2604 40.1555 -2.97112
195 1 0 12.2604 40.1555 -2.97112
196 1 2.80944 12.2604 40.1555 -2.97111
197 1 7.0236 9.82739 40.1441 -2.97446
198 1 1.40472 9.82739 40.1441 -2.97446
199 1 4.21416 9.82739 40.1441 -2.97446
200 1 5.61888 5.78293 37.7979 -3.43976
201 1 0 5.78293 37.7979 -3.43976
202 1 7.0236 8.21595 37.8093 -3.43975
203 1 1.40472 8.21595 37.8093 -3.43975
204 1 4.21416 8.21595 37.8093 -3.43975
205 1 2.80944 5.78293 37.7979 -3.43976
206 1 4.21416 0.095268 40.0985 -2.9788
207 1 4.21416 13.082 37.8321 -3.44396
208 1 5.61888 2.52829 40.11 -2.97213
209 1 0 2.52829 40.11 -2.97213
210 1 5.61888 10.649 37.8207 -3.43844
211 1 0 10.649 37.8207 -3.43844
212 1 7.0236 0.095268 40.0985 -2.97881
213 1 7.0236 13.082 37.8321 -3.44396
214 1 1.40472 0.095268 40.0985 -2.97881
215 1 1.40472 13.082 37.8321 -3.44396
216 1 2.80944 2.52829 40.11 -2.97213
217 1 2.80944 10.649 37.8207 -3.43844
218 1 7.0236 4.96133 40.1213 -2.97443
219 1 1.40472 4.96133 40.1213 -2.97443
220 1 5.61888 7.39435 40.1327 -2.97441
221 1 0 7.39435 40.1327 -2.97442
222 1 4.21416 4.96133 40.1213 -2.97442
223 1 2.80944 7.39435 40.1327 -2.97441
224 1 5.61888 9.03756 35.4859 -3.35104
225 1 0 9.03756 35.4859 -3.35105
226 1 7.0236 11.4706 35.4973 -3.35223
227 1 1.40472 11.4706 35.4973 -3.35223
228 1 4.21416 11.4706 35.4973 -3.35223
229 1 2.80944 9.03756 35.4859 -3.35104
230 1 2.80944 0.916869 37.7751 -3.4418
231 1 2.80944 13.9036 35.5087 -3.34154
232 1 0 0.916869 37.7751 -3.44181
233 1 0 13.9036 35.5087 -3.34155
234 1 5.61888 0.916869 37.7751 -3.4418
235 1 5.61888 13.9036 35.5087 -3.34154
236 1 7.0236 3.34989 37.7865 -3.43844
237 1 1.40472 3.34989 37.7865 -3.43843
238 1 4.21416 3.34989 37.7865 -3.43843
239 1 7.0236 1.73846 35.4518 -3.35208
240 1 1.40472 1.73846 35.4518 -3.35207
241 1 4.21416 1.73846 35.4518 -3.35207
242 1 7.0236 6.60452 35.4745 -3.35104
243 1 1.40472 6.60452 35.4745 -3.35104
244 1 5.61888 4.17149 35.4632 -3.35108
245 1 0 4.17149 35.4632 -3.35108
246 1 4.21416 6.60452 35.4745 -3.35104
247 1 2.80944 4.17149 35.4632 -3.35108
