ITEM: TIMESTEP
562
ITEM: NUMBER OF ATOMS
18
ITEM: BOX BOUNDS ff ff ff
0.0000000000000000e+00 1.8000000000000000e+01
0.0000000000000000e+00 1.8000000000000000e+01
0.0000000000000000e+00 1.8000000000000000e+01
ITEM: ATOMS id type x y z c_peatom 
2 1 7.36011 7.76042 7.31908 -4.94257 
11 2 6.95145 6.23028 6.94158 -3.4384 
15 2 8.81588 7.27113 8.46757 -3.50674 
8 2 10.514 8.71226 7.374 -3.75764 
17 2 8.49217 10.4564 8.87891 -4.28197 
4 1 11.6917 9.98637 7.39064 -4.21465 
3 1 9.74043 11.7337 8.43158 -3.88239 
9 2 6.45202 5.62598 9.66483 -2.59008 
10 2 8.93303 5.36909 10.5741 -2.6204 
6 1 7.81722 6.57825 10.1014 -8.34378 
16 2 8.01135 8.77112 10.3641 -3.56678 
14 2 7.41731 7.13617 11.9024 -3.11355 
7 1 8.38001 10.8578 10.9057 -5.3382 
1 1 9.73355 9.00065 9.21325 -6.7184 
13 2 9.90731 9.83158 11.11 -3.77788 
12 2 11.0703 10.6228 9.02278 -4.52474 
5 1 8.76483 8.42546 12.1332 -5.83131 
18 2 7.66173 9.85462 12.3619 -3.55909 
