ITEM: TIMESTEP
318
ITEM: NUMBER OF ATOMS
18
ITEM: BOX BOUNDS ff ff ff
0.0000000000000000e+00 1.8000000000000000e+01
0.0000000000000000e+00 1.8000000000000000e+01
0.0000000000000000e+00 1.8000000000000000e+01
ITEM: ATOMS id type x y z c_peatom
11 2 9.2977 8.45815 5.9643 -2.56564
1 1 6.47129 7.56981 8.58059 -3.84239
15 2 7.53347 6.80992 7.42648 -3.84519
6 1 9.11693 7.92151 7.59631 -8.54397
16 2 10.3885 6.75695 7.50096 -2.56867
4 1 7.70001 10.9648 8.92382 -4.81597
17 2 9.07143 9.98619 7.99699 -3.94385
7 1 10.456 11.2966 7.73588 -4.94297
18 2 11.4358 10.3152 8.85577 -3.40805
2 1 8.88437 7.25191 10.3948 -4.47085
8 2 7.79212 8.71022 9.41676 -4.53517
14 2 8.99472 8.63936 11.638 -4.08486
9 2 10.2523 8.02065 9.42584 -3.64795
5 1 7.27062 9.29351 11.2648 -4.43146
12 2 8.14431 10.8455 10.7821 -4.12451
3 1 9.97337 9.91904 10.1461 -8.47775
10 2 11.0576 10.2562 11.4604 -2.65326
13 2 9.49968 11.8683 9.23907 -3.64852
