ITEM: TIMESTEP
301
ITEM: NUMBER OF ATOMS
16
ITEM: BOX BOUNDS ff ff ff
0.0000000000000000e+00 1.8000000000000000e+01
0.0000000000000000e+00 1.8000000000000000e+01
0.0000000000000000e+00 1.8000000000000000e+01
ITEM: ATOMS id type x y z c_peatom
9 2 8.7275 8.80428 8.88533 -4.13898
1 1 10.4182 7.72184 8.3871 -6.51957
16 2 9.29715 6.72562 7.61212 -2.8991
2 1 8.70768 10.6093 8.08105 -7.74949
7 2 8.0668 10.4819 6.47031 -2.61301
10 2 6.81006 10.4418 8.72395 -3.27611
3 1 11.5902 10.5149 8.51898 -4.7299
8 2 10.3769 9.541 7.46799 -3.69908
11 2 10.3119 11.9155 8.42538 -4.03671
6 1 6.85482 8.77236 9.43882 -5.3647
13 2 10.0149 7.42746 10.2019 -3.1909
14 2 7.50583 9.12498 11.1081 -3.41945
15 2 8.51465 10.9667 10.1718 -3.58389
4 1 10.0947 11.9947 10.3118 -4.67849
5 1 9.40717 9.19474 10.6736 -6.32918
12 2 11.0623 10.3794 10.3763 -4.08345
