ITEM: TIMESTEP
1114
ITEM: NUMBER OF ATOMS
17
ITEM: BOX BOUNDS ff ff ff
0.0000000000000000e+00 1.8000000000000000e+01
0.0000000000000000e+00 1.8000000000000000e+01
0.0000000000000000e+00 1.8000000000000000e+01
ITEM: ATOMS id type x y z c_peatom 
1 1 7.01793 8.89815 8.15028 -7.62514 
4 1 7.03459 6.3389 7.01904 -3.2055 
9 2 8.18703 7.37712 7.58336 -4.40405 
13 2 7.19025 9.60302 6.58004 -2.64409 
7 2 8.61289 9.93538 8.56588 -3.36675 
12 2 9.44512 12.0829 8.76612 -2.81249 
10 2 7.80458 7.98994 9.76626 -2.92664 
2 1 10.9927 8.02846 10.6042 -7.20403 
11 2 10.4193 7.17938 9.25089 -2.8221 
15 2 9.43883 8.13693 11.6649 -3.01328 
6 1 13.3148 8.73419 9.04989 -3.27899 
3 1 8.51046 9.49601 10.6046 -7.83308 
5 1 7.80395 11.7204 9.02406 -6.74152 
8 2 6.65547 10.0717 9.74938 -3.01361 
17 2 8.17403 11.4523 10.779 -3.13899 
14 2 10.331 9.69129 10.0739 -3.16196 
16 2 12.5977 9.38744 10.3698 -4.26973 
