ITEM: TIMESTEP
262
ITEM: NUMBER OF ATOMS
18
ITEM: BOX BOUNDS ff ff ff
0.0000000000000000e+00 1.8000000000000000e+01
0.0000000000000000e+00 1.8000000000000000e+01
0.0000000000000000e+00 1.8000000000000000e+01
ITEM: ATOMS id type x y z c_peatom 
6 1 9.27138 9.67531 5.66218 -5.25205 
5 1 8.27766 7.92887 7.69057 -5.63862 
7 1 11.2853 8.5735 7.31007 -6.08961 
17 2 9.60777 7.93557 6.21963 -3.92433 
14 2 10.0273 7.21685 8.36321 -3.6713 
4 1 8.11334 10.7687 8.06956 -3.57139 
12 2 7.5755 9.65339 6.77523 -4.30417 
18 2 11.7613 9.33582 8.95575 -3.22932 
15 2 10.8916 10.1791 6.42857 -3.58894 
13 2 9.48605 9.46052 8.09957 -4.38094 
8 2 6.27646 8.16372 11.579 -2.83224 
11 2 8.33967 7.96288 9.73015 -3.89084 
1 1 9.37457 6.2911 10.0281 -4.56881 
2 1 10.201 8.90804 9.97555 -7.69554 
16 2 10.5167 7.25756 10.9713 -3.62629 
3 1 6.76121 9.16472 10.3016 -6.63963 
9 2 7.51722 10.3046 11.2806 -2.88218 
10 2 9.89939 10.2273 11.0465 -2.65143 
