ITEM: TIMESTEP
1138
ITEM: NUMBER OF ATOMS
18
ITEM: BOX BOUNDS ff ff ff
0.0000000000000000e+00 1.8000000000000000e+01
0.0000000000000000e+00 1.8000000000000000e+01
0.0000000000000000e+00 1.8000000000000000e+01
ITEM: ATOMS id type x y z c_peatom 
1 1 6.62271 8.53822 6.77862 -4.57796 
9 2 8.62957 8.9559 7.43049 -5.20869 
3 1 10.4449 7.87684 7.0853 -4.44043 
8 2 9.17052 6.71817 7.66316 -4.12575 
11 2 11.4742 7.03771 8.41279 -4.23299 
15 2 5.88515 9.47885 7.85747 -3.69203 
2 1 9.27173 10.3242 6.56119 -2.61831 
14 2 8.20081 5.98511 9.60857 -3.08588 
5 1 10.0474 5.68703 9.03988 -5.63404 
6 1 8.41905 7.93167 9.28216 -6.4488 
4 1 11.3252 8.20063 9.88769 -4.68691 
18 2 10.0951 6.95492 10.4629 -3.9608 
10 2 7.46618 9.70973 9.73742 -2.72198 
16 2 6.70776 10.1433 11.0317 -0.911152 
17 2 8.95055 11.7992 10.5729 -2.74755 
13 2 9.65658 9.18846 10.1783 -3.74286 
7 1 9.35265 10.8754 9.20578 -7.70547 
12 2 10.985 11.3963 9.1678 -2.6904 
