ITEM: TIMESTEP
117
ITEM: NUMBER OF ATOMS
390
ITEM: BOX BOUNDS pp pp pp
0.0000000000000000e+00 8.4283000000000001e+00
0.0000000000000000e+00 1.4598200000000000e+01
0.0000000000000000e+00 4.9476269000000002e+01
ITEM: ATOMS id type x y z c_peatom
64 1 2.92401 12.1652 3.61953 -2.2941
65 1 7.13816 4.86606 3.61953 -2.29409
66 1 5.73344 7.2991 5.31004 -6.5982
67 1 7.13816 9.73214 3.61953 -2.29409
68 1 5.73344 12.1652 5.31004 -6.5982
69 1 7.13816 0 3.61953 -2.29408
70 1 5.73344 2.43304 5.31004 -6.5982
71 1 2.92401 7.2991 3.61953 -2.29408
72 1 1.51929 9.73212 5.31004 -6.59819
73 1 2.92401 2.43304 3.61953 -2.29408
74 1 1.51929 4.86606 5.31004 -6.5982
75 1 1.51929 0 5.31004 -6.59819
76 1 0.114574 7.2991 5.80124 -6.54405
77 1 4.32872 9.73212 5.80124 -6.54404
78 1 2.92401 7.2991 7.4917 -6.40207
79 1 0.114574 12.1652 5.80124 -6.54405
80 1 7.13816 9.73214 7.4917 -6.40206
81 1 4.32872 0 5.80124 -6.54405
82 1 2.92401 12.1652 7.4917 -6.40208
83 1 0.114574 2.43304 5.80124 -6.54404
84 1 7.13816 0 7.4917 -6.40207
85 1 4.32872 4.86606 5.80124 -6.54403
86 1 2.92401 2.43304 7.4917 -6.40207
87 1 7.13816 4.86606 7.4917 -6.40206
88 1 5.73344 12.1652 7.98285 -6.40205
91 1 5.73344 7.2991 7.98285 -6.40204
92 1 1.51929 9.73212 7.98285 -6.40204
95 1 5.73344 2.43304 7.98285 -6.40204
96 1 1.51929 4.86606 7.98285 -6.40204
98 1 1.51929 0 7.98285 -6.40204
100 1 4.32872 9.73212 3.12833 -3.27315
101 1 4.32872 4.86606 3.12833 -3.27316
102 1 0.114574 12.1652 3.12833 -3.27315
103 1 0.114574 2.43304 3.12833 -3.27315
104 1 0.114574 7.2991 3.12833 -3.27315
105 1 4.32872 0 3.12833 -3.27314
337 2 3.03858 10.477 4.46474 -3.32409
338 2 1.40472 12.91 4.46474 -3.32409
339 2 4.32872 13.1085 4.46474 -3.32408
340 2 7.25273 3.1779 4.46474 -3.32408
341 2 0.114574 5.80937 4.46474 -3.32409
342 2 5.61887 5.61093 4.46474 -3.32408
343 2 0.114574 10.6754 4.46474 -3.32409
344 2 5.61887 10.477 4.46474 -3.32408
345 2 7.25273 8.04396 4.46474 -3.32409
346 2 0.114574 0.943306 4.46474 -3.32409
347 2 5.61887 0.744873 4.46474 -3.32408
348 2 7.25273 12.91 4.46474 -3.32408
349 2 1.40472 8.04396 4.46474 -3.32407
350 2 4.32872 8.24241 4.46474 -3.32408
351 2 3.03858 5.61092 4.46474 -3.32409
352 2 1.40472 3.1779 4.46474 -3.32408
353 2 4.32872 3.37635 4.46474 -3.32409
354 2 3.03858 0.744859 4.46474 -3.32408
355 2 0.22914 8.98727 6.64644 -4.12705
356 2 7.02359 6.55424 6.64644 -4.12705
357 2 1.51929 6.35579 6.64644 -4.12705
358 2 5.73344 8.78883 6.64644 -4.12705
359 2 2.80944 8.98727 6.64644 -4.12704
360 2 4.44329 11.4203 6.64644 -4.12706
361 2 0.22914 13.8533 6.64644 -4.12706
362 2 7.02359 11.4203 6.64644 -4.12704
363 2 1.51929 11.2219 6.64644 -4.12706
364 2 4.44329 1.68816 6.64644 -4.12706
365 2 5.73344 13.6549 6.64644 -4.12705
366 2 2.80944 13.8533 6.64644 -4.12705
367 2 0.22914 4.1212 6.64644 -4.12705
368 2 1.51929 1.48973 6.64644 -4.12705
369 2 7.02359 1.68816 6.64644 -4.12705
370 2 2.80944 4.1212 6.64644 -4.12704
371 2 5.73344 3.92275 6.64644 -4.12704
372 2 4.44329 6.55424 6.64644 -4.12706
28 1 5.73344 2.43304 14.5279 -6.40115
29 1 4.32872 4.86606 16.2184 -6.29903
30 1 5.73344 12.1652 14.5279 -6.40126
31 1 5.73344 7.2991 14.5279 -6.40138
32 1 4.32872 9.73212 16.2184 -6.34943
33 1 1.51928 4.86606 14.5279 -6.40105
34 1 0.114574 2.43304 16.2184 -6.3218
35 1 1.51928 0 14.5279 -6.40125
36 1 0.114574 12.1652 16.2184 -6.36133
37 1 1.51928 9.73212 14.5279 -6.40124
38 1 0.114574 7.2991 16.2184 -6.38131
39 1 4.32872 0 16.2184 -6.35821
40 1 2.92401 12.1652 10.1646 -6.40196
41 1 2.92401 7.2991 10.1646 -6.40195
42 1 1.51929 9.73212 11.855 -6.4021
43 1 7.13816 4.86606 10.1646 -6.40194
44 1 5.73344 2.43304 11.855 -6.40212
45 1 7.13816 0 10.1646 -6.40195
46 1 5.73344 12.1652 11.855 -6.40212
47 1 7.13816 9.73214 10.1646 -6.40194
48 1 5.73344 7.2991 11.855 -6.40212
49 1 2.92401 2.43304 10.1646 -6.40195
50 1 1.51929 0 11.855 -6.40212
51 1 1.51929 4.86606 11.855 -6.4021
52 1 4.32872 0 12.3462 -6.40196
53 1 2.92401 2.43304 14.0367 -6.38416
54 1 7.13816 0 14.0367 -6.38415
55 1 0.114574 7.2991 12.3462 -6.40197
56 1 0.114574 2.43304 12.3462 -6.40196
57 1 7.13816 4.86606 14.0367 -6.38322
58 1 4.32872 4.86606 12.3462 -6.40196
59 1 2.92401 7.2991 14.0367 -6.38417
60 1 0.114574 12.1652 12.3462 -6.40197
61 1 4.32872 9.73212 12.3462 -6.40196
62 1 7.13816 9.73214 14.0367 -6.38415
63 1 2.92401 12.1652 14.0367 -6.38418
89 1 0.114574 12.1652 9.67335 -6.40208
90 1 4.32872 9.73212 9.67335 -6.40207
93 1 0.114574 7.2991 9.67335 -6.40207
94 1 4.32872 4.86606 9.67335 -6.40207
97 1 0.114574 2.43304 9.67335 -6.40207
99 1 4.32872 0 9.67335 -6.40207
283 2 5.84801 4.1212 15.3731 -4.12739
284 2 7.13816 1.48973 15.3731 -4.12743
285 2 4.21415 1.68818 15.3731 -4.12744
286 2 5.84801 13.8533 15.3731 -4.12743
287 2 7.13816 11.2219 15.3731 -4.12743
288 2 4.21415 11.4203 15.3731 -4.12745
289 2 5.84801 8.98727 15.3731 -4.12743
290 2 7.13816 6.35579 15.3731 -4.12741
291 2 4.21415 6.55424 15.3731 -4.12745
292 2 0 4.1212 15.3731 -4.12739
293 2 2.92401 3.92275 15.3731 -4.12744
294 2 1.63386 6.55424 15.3731 -4.12744
295 2 1.63386 1.68816 15.3731 -4.12743
296 2 0 13.8533 15.3731 -4.12744
297 2 2.92401 13.6549 15.3731 -4.12745
298 2 0 8.98727 15.3731 -4.12744
299 2 2.92401 8.78882 15.3731 -4.12744
300 2 1.63386 11.4203 15.3731 -4.12744
301 2 3.03858 13.8533 11.0098 -4.12708
302 2 1.40472 11.4203 11.0098 -4.12708
303 2 4.32872 11.2219 11.0098 -4.12709
304 2 3.03858 8.98727 11.0098 -4.12707
305 2 1.40472 6.55424 11.0098 -4.12709
306 2 4.32872 6.35579 11.0098 -4.12709
307 2 5.61887 4.1212 11.0098 -4.12707
308 2 0.114574 3.92275 11.0098 -4.12708
309 2 7.25273 6.55424 11.0098 -4.12709
310 2 0.114574 13.6549 11.0098 -4.12709
311 2 5.61887 13.8533 11.0098 -4.12707
312 2 7.25273 1.68818 11.0098 -4.12709
313 2 7.25273 11.4203 11.0098 -4.12707
314 2 5.61887 8.98727 11.0098 -4.12708
315 2 0.114574 8.78882 11.0098 -4.12709
316 2 3.03858 4.1212 11.0098 -4.12707
317 2 4.32872 1.48973 11.0098 -4.12708
318 2 1.40472 1.68816 11.0098 -4.12708
319 2 5.73344 0.943306 13.1914 -4.12709
320 2 2.80944 0.744873 13.1914 -4.12708
321 2 4.44329 12.91 13.1914 -4.1271
322 2 0.22914 5.61093 13.1914 -4.12709
323 2 7.02359 8.04396 13.1914 -4.12709
324 2 1.51929 8.24241 13.1914 -4.12708
325 2 0.22914 0.744873 13.1914 -4.12709
326 2 7.02359 3.1779 13.1914 -4.12708
327 2 1.51929 3.37635 13.1914 -4.12708
328 2 4.44329 3.1779 13.1914 -4.12709
329 2 5.73344 5.80937 13.1914 -4.1271
330 2 2.80944 5.61093 13.1914 -4.12709
331 2 0.22914 10.477 13.1914 -4.12709
332 2 7.02359 12.91 13.1914 -4.12709
333 2 1.51929 13.1085 13.1914 -4.12709
334 2 4.44329 8.04396 13.1914 -4.12709
335 2 5.73344 10.6754 13.1914 -4.12709
336 2 2.80944 10.477 13.1914 -4.12709
373 2 5.84801 10.477 8.8281 -4.12712
374 2 7.13816 13.1085 8.8281 -4.12713
375 2 0 10.477 8.8281 -4.12713
376 2 1.63386 12.91 8.8281 -4.12713
377 2 4.21415 8.04396 8.8281 -4.12713
378 2 5.84801 5.61093 8.8281 -4.12712
379 2 7.13816 8.24241 8.8281 -4.12713
380 2 1.63386 8.04396 8.8281 -4.12711
381 2 2.92401 10.6754 8.8281 -4.12713
382 2 4.21415 3.1779 8.8281 -4.12712
383 2 5.84801 0.744873 8.8281 -4.12712
384 2 7.13816 3.37635 8.8281 -4.12712
385 2 1.63386 3.1779 8.8281 -4.12711
386 2 2.92401 5.80937 8.8281 -4.12713
387 2 2.92401 0.943306 8.8281 -4.12713
388 2 4.21415 12.91 8.8281 -4.12713
389 2 0 0.744859 8.8281 -4.12713
390 2 0 5.61092 8.8281 -4.12714
1 1 2.92401 2.43304 19.0018 -6.27231
2 1 2.5839 2.64275 21.5723 -3.78336
3 1 4.36837 4.44852 21.2535 -4.28823
4 1 2.92401 7.2991 19.0018 -4.84703
5 1 6.04858 6.44944 19.7772 -2.66951
6 1 3.30948 7.56845 21.4331 -2.35968
7 1 2.92401 12.1652 19.0018 -6.47153
8 1 2.92265 11.9682 21.4001 -3.24458
9 1 7.13816 4.86606 19.0018 -4.77887
10 1 0.936432 4.4954 21.4649 -2.46232
11 1 6.58128 3.02532 21.0972 -3.88021
12 1 7.13816 0 19.0018 -5.85532
13 1 7.13816 9.73214 19.0018 -4.47819
14 1 5.64767 8.82207 21.3941 -2.33714
15 1 1.47809 9.59833 21.0135 -3.85837
16 1 4.32872 4.86606 18.5106 -6.98247
17 1 2.92401 7.2991 16.7095 -6.46942
18 1 4.32872 9.73212 18.5106 -5.43721
19 1 2.92401 12.1652 16.7095 -6.42867
20 1 0.114574 12.1652 18.5106 -5.38114
21 1 0.114574 7.2991 18.5106 -4.23862
22 1 7.13816 9.73214 16.7095 -6.5124
23 1 0.114574 2.43304 18.5106 -6.93398
24 1 7.13816 4.86606 16.7095 -6.4348
25 1 4.32872 0 18.5106 -5.45022
26 1 2.92401 2.43304 16.7095 -6.42455
27 1 7.13816 0 16.7095 -6.46728
118 1 7.0236 8.27947 23.8462 -3.14781
119 1 1.40472 8.27947 23.8462 -3.16846
120 1 5.61888 10.7125 23.8576 -3.09906
121 1 0 10.7125 23.8576 -3.01214
122 1 4.21416 8.27947 23.8462 -3.32587
123 1 2.80944 10.7125 23.8576 -3.1824
125 1 4.21416 13.1455 23.869 -3.1016
127 1 7.0236 13.1455 23.869 -2.96675
129 1 1.40472 13.1455 23.869 -3.08836
133 1 5.61888 0.980371 23.812 -2.9704
134 1 0 0.980371 23.812 -2.91887
135 1 2.80944 0.980371 23.812 -3.10165
136 1 7.0236 3.41341 23.8235 -3.1636
137 1 1.40472 3.41341 23.8235 -3.27749
138 1 5.61888 5.84643 23.8348 -2.9827
139 1 0 5.84643 23.8348 -3.11853
140 1 4.21416 3.41341 23.8235 -3.19484
141 1 2.80944 5.84643 23.8348 -3.19725
250 2 4.25337 6.31838 19.7491 -3.4212
251 2 2.8536 9.08464 19.6283 -3.04721
252 2 1.51807 1.70942 19.9655 -2.74411
253 2 1.62034 11.2268 19.8468 -3.35416
254 2 2.95629 13.7152 19.8982 -2.42777
255 2 0.490507 9.10409 19.2827 -3.02408
256 2 5.63782 4.08497 19.6983 -4.52713
257 2 4.39928 2.23423 20.493 -2.4931
258 2 0.0223125 3.8388 19.84 -3.10043
259 2 5.63746 13.5903 19.5243 -2.07371
260 2 6.96842 1.81361 19.5913 -3.1484
261 2 4.26405 11.337 19.8789 -2.75054
262 2 7.40163 8.62398 20.573 -1.18524
263 2 0.339827 13.7962 19.5454 -2.00457
264 2 2.75195 4.10347 19.93 -4.12261
265 2 4.32872 3.37635 17.5548 -3.98127
266 2 3.03858 5.61093 17.5548 -3.95687
267 2 5.61887 5.61093 17.5548 -4.32451
268 2 4.32872 8.24241 17.5548 -3.82969
269 2 3.03858 10.477 17.5548 -4.02531
270 2 5.61887 10.477 17.5548 -3.38718
271 2 1.40472 12.91 17.5548 -3.95038
272 2 7.25273 12.91 17.5548 -4.01257
273 2 0.114574 10.6754 17.5548 -3.66413
274 2 0.114574 5.80937 17.5548 -3.51276
275 2 1.40472 8.04397 17.5548 -3.78007
276 2 7.25273 8.04397 17.5548 -3.70864
277 2 1.40472 3.1779 17.5548 -3.99963
278 2 7.25273 3.1779 17.5548 -4.07169
279 2 0.114574 0.943306 17.5548 -4.02978
280 2 4.32872 13.1085 17.5548 -3.97832
281 2 3.03858 0.744873 17.5548 -3.61627
282 2 5.61887 0.744873 17.5548 -3.99678
106 1 7.0236 5.02485 26.1582 -3.40783
107 1 1.40472 5.02485 26.1582 -3.38693
108 1 5.61888 7.45787 26.1696 -3.39999
109 1 0 7.45787 26.1696 -3.38915
110 1 4.21416 5.02485 26.1582 -3.40012
111 1 2.80944 7.45787 26.1696 -3.38149
112 1 7.0236 9.89091 26.181 -3.42059
113 1 1.40472 9.89091 26.181 -3.41063
114 1 5.61888 12.3239 26.1924 -3.4184
115 1 0 12.3239 26.1924 -3.42334
116 1 4.21416 9.89091 26.181 -3.38985
117 1 2.80944 12.3239 26.1924 -3.4167
124 1 4.21416 0.158785 26.1354 -3.40039
126 1 7.0236 0.158785 26.1354 -3.43011
128 1 1.40472 0.158785 26.1354 -3.40881
130 1 5.61888 2.59181 26.1468 -3.39707
131 1 0 2.59181 26.1468 -3.3971
132 1 2.80944 2.59181 26.1468 -3.38631
142 1 5.61888 5.81468 30.8164 -3.35104
143 1 0 5.81468 30.8164 -3.35104
144 1 7.0236 8.24771 30.8277 -3.35103
145 1 1.40472 8.24771 30.8277 -3.35103
146 1 4.21416 8.24771 30.8277 -3.35103
147 1 2.80944 5.81468 30.8164 -3.35104
148 1 7.0236 1.77021 28.4702 -3.35207
149 1 1.40472 1.77021 28.4702 -3.35207
150 1 4.21416 1.77021 28.4702 -3.35207
151 1 7.0236 6.63627 28.493 -3.35105
152 1 1.40472 6.63627 28.493 -3.35104
153 1 5.61888 4.20324 28.4816 -3.35108
154 1 0 4.20324 28.4816 -3.35108
155 1 4.21416 6.63627 28.493 -3.35104
156 1 2.80944 4.20324 28.4816 -3.35108
157 1 5.61888 9.06931 28.5044 -3.35104
158 1 0 9.06931 28.5044 -3.35104
159 1 7.0236 11.5023 28.5158 -3.35223
160 1 1.40472 11.5023 28.5158 -3.35223
161 1 4.21416 11.5023 28.5158 -3.35223
162 1 2.80944 9.06931 28.5044 -3.35104
163 1 2.80944 0.94862 30.7936 -3.3559
164 1 2.80944 13.9354 28.5271 -3.34153
165 1 0 0.94862 30.7936 -3.3559
166 1 0 13.9354 28.5271 -3.34154
167 1 5.61888 0.94862 30.7936 -3.3559
168 1 5.61888 13.9354 28.5271 -3.34153
169 1 7.0236 3.38164 30.805 -3.34972
170 1 1.40472 3.38164 30.805 -3.34972
171 1 4.21416 3.38164 30.805 -3.34972
182 1 4.21416 13.1138 30.8505 -3.35589
183 1 5.61888 10.6807 30.8392 -3.34972
184 1 0 10.6807 30.8392 -3.34973
186 1 7.0236 13.1138 30.8505 -3.3559
188 1 1.40472 13.1138 30.8505 -3.35589
189 1 2.80944 10.6807 30.8392 -3.34972
172 1 5.61888 7.42612 33.1512 -3.35104
173 1 0 7.42612 33.1512 -3.35104
174 1 7.0236 9.85914 33.1626 -3.35108
175 1 1.40472 9.85914 33.1626 -3.35108
176 1 4.21416 9.85914 33.1626 -3.35108
177 1 2.80944 7.42612 33.1512 -3.35104
178 1 5.61888 12.2922 33.1739 -3.35206
179 1 0 12.2922 33.1739 -3.35206
180 1 2.80944 12.2922 33.1739 -3.35206
181 1 4.21416 0.127019 33.117 -3.34154
185 1 7.0236 0.127019 33.117 -3.34154
187 1 1.40472 0.127019 33.117 -3.34154
190 1 5.61888 2.56006 33.1284 -3.35222
191 1 0 2.56006 33.1284 -3.35222
192 1 7.0236 4.99308 33.1397 -3.35105
193 1 1.40472 4.99308 33.1397 -3.35104
194 1 4.21416 4.99308 33.1397 -3.35104
195 1 2.80944 2.56006 33.1284 -3.35222
196 1 5.61888 12.2604 40.1555 -2.97112
197 1 0 12.2604 40.1555 -2.97112
198 1 2.80944 12.2604 40.1555 -2.97111
199 1 7.0236 9.82739 40.1441 -2.97446
200 1 1.40472 9.82739 40.1441 -2.97446
201 1 4.21416 9.82739 40.1441 -2.97446
202 1 5.61888 5.78293 37.7979 -3.43976
203 1 0 5.78293 37.7979 -3.43976
204 1 7.0236 8.21595 37.8093 -3.43975
205 1 1.40472 8.21595 37.8093 -3.43975
206 1 4.21416 8.21595 37.8093 -3.43975
207 1 2.80944 5.78293 37.7979 -3.43976
208 1 4.21416 0.095268 40.0985 -2.9788
209 1 4.21416 13.082 37.8321 -3.44396
210 1 5.61888 2.52829 40.11 -2.97213
211 1 0 2.52829 40.11 -2.97213
212 1 5.61888 10.649 37.8207 -3.43844
213 1 0 10.649 37.8207 -3.43844
214 1 7.0236 0.095268 40.0985 -2.97881
215 1 7.0236 13.082 37.8321 -3.44396
216 1 1.40472 0.095268 40.0985 -2.97881
217 1 1.40472 13.082 37.8321 -3.44396
218 1 2.80944 2.52829 40.11 -2.97213
219 1 2.80944 10.649 37.8207 -3.43844
220 1 7.0236 4.96133 40.1213 -2.97443
221 1 1.40472 4.96133 40.1213 -2.97443
222 1 5.61888 7.39435 40.1327 -2.97441
223 1 0 7.39435 40.1327 -2.97442
224 1 4.21416 4.96133 40.1213 -2.97442
225 1 2.80944 7.39435 40.1327 -2.97441
226 1 5.61888 9.03756 35.4859 -3.35104
227 1 0 9.03756 35.4859 -3.35105
228 1 7.0236 11.4706 35.4973 -3.35223
229 1 1.40472 11.4706 35.4973 -3.35223
230 1 4.21416 11.4706 35.4973 -3.35223
231 1 2.80944 9.03756 35.4859 -3.35104
232 1 2.80944 0.916869 37.7751 -3.4418
233 1 2.80944 13.9036 35.5087 -3.34154
234 1 0 0.916869 37.7751 -3.44181
235 1 0 13.9036 35.5087 -3.34155
236 1 5.61888 0.916869 37.7751 -3.4418
237 1 5.61888 13.9036 35.5087 -3.34154
238 1 7.0236 3.34989 37.7865 -3.43844
239 1 1.40472 3.34989 37.7865 -3.43843
240 1 4.21416 3.34989 37.7865 -3.43843
241 1 7.0236 1.73846 35.4518 -3.35208
242 1 1.40472 1.73846 35.4518 -3.35207
243 1 4.21416 1.73846 35.4518 -3.35207
244 1 7.0236 6.60452 35.4745 -3.35104
245 1 1.40472 6.60452 35.4745 -3.35104
246 1 5.61888 4.17149 35.4632 -3.35108
247 1 0 4.17149 35.4632 -3.35108
248 1 4.21416 6.60452 35.4745 -3.35104
249 1 2.80944 4.17149 35.4632 -3.35108
