ITEM: TIMESTEP
231
ITEM: NUMBER OF ATOMS
18
ITEM: BOX BOUNDS ff ff ff
0.0000000000000000e+00 1.8000000000000000e+01
0.0000000000000000e+00 1.8000000000000000e+01
0.0000000000000000e+00 1.8000000000000000e+01
ITEM: ATOMS id type x y z c_peatom
1 1 6.13817 8.88674 8.36499 -5.1893
2 1 8.7077 7.51308 8.07081 -6.50785
8 2 6.73933 7.18771 8.16479 -3.39581
3 1 11.6575 8.12799 7.95008 -5.80852
9 2 10.528 6.62631 8.62723 -3.58635
12 2 10.0576 8.57892 6.82537 -3.5489
11 2 8.02143 9.40683 8.23097 -4.10105
4 1 9.83515 10.3867 7.68064 -5.59641
13 2 11.6936 10.1451 8.21234 -3.77504
14 2 8.52651 7.41544 10.0693 -3.67042
16 2 6.39683 8.94171 10.1589 -3.39581
5 1 10.4866 7.29554 10.5114 -5.83762
10 2 10.0529 8.81587 9.09967 -4.476
15 2 12.1204 8.28401 9.92259 -3.6638
6 1 8.33742 9.40935 10.2267 -6.50786
7 1 11.2707 10.1087 10.202 -5.80851
17 2 10.0556 9.04567 11.3779 -3.58635
18 2 9.58443 11.0018 9.58005 -3.54891
