ITEM: TIMESTEP
755
ITEM: NUMBER OF ATOMS
18
ITEM: BOX BOUNDS ff ff ff
0.0000000000000000e+00 1.8000000000000000e+01
0.0000000000000000e+00 1.8000000000000000e+01
0.0000000000000000e+00 1.8000000000000000e+01
ITEM: ATOMS id type x y z c_peatom
1 1 8.02371 7.37717 7.15735 -5.23133
8 2 8.98281 6.80255 8.61593 -3.82447
11 2 7.54457 8.92493 7.97222 -3.22118
2 1 10.6515 6.53687 7.6486 -4.63777
9 2 9.74723 7.38114 6.20473 -4.36184
10 2 11.7132 8.1315 7.68249 -4.27347
12 2 8.12172 11.7682 8.76156 -3.25945
3 1 10.5183 9.09233 6.55433 -4.47088
4 1 9.75876 11.5418 8.74549 -5.25881
13 2 9.72183 9.61036 8.2206 -4.25849
5 1 8.39158 8.64482 9.77682 -9.94053
15 2 7.38683 7.36352 10.3905 -2.48767
14 2 8.3421 8.87528 11.8366 -3.31391
16 2 10.2804 7.97083 10.5721 -3.8524
17 2 7.23583 9.91228 10.1076 -2.46247
6 1 11.2273 9.09615 9.38545 -5.0631
18 2 9.86321 10.2939 10.4045 -3.66792
7 1 10.0659 9.18555 12.0187 -4.87025
