ITEM: TIMESTEP
1210
ITEM: NUMBER OF ATOMS
18
ITEM: BOX BOUNDS ff ff ff
0.0000000000000000e+00 1.8000000000000000e+01
0.0000000000000000e+00 1.8000000000000000e+01
0.0000000000000000e+00 1.8000000000000000e+01
ITEM: ATOMS id type x y z c_peatom
1 1 8.67256 7.30735 8.23138 -5.84847
2 1 6.14999 8.66417 8.22362 -5.17466
8 2 6.75898 6.95095 8.39481 -3.45989
3 1 11.6378 8.29234 7.88144 -7.05446
9 2 11.3342 7.64317 6.33169 -2.74753
10 2 10.6204 6.67337 8.60501 -3.48213
11 2 8.015 9.17194 8.17879 -4.21865
4 1 9.60398 10.4917 8.05373 -5.12991
12 2 11.2851 10.0663 7.27749 -3.2737
13 2 8.5991 7.36401 10.1361 -3.94195
5 1 10.5883 7.18588 10.4994 -5.80619
14 2 10.0151 8.85657 11.4723 -3.84451
15 2 10.0854 8.83006 9.0973 -4.29655
16 2 12.1086 8.28661 9.99702 -3.52531
6 1 8.22659 9.28836 10.2667 -6.34091
17 2 6.24832 9.10889 9.97636 -3.40912
7 1 11.1524 9.9597 10.5579 -5.14324
18 2 9.5067 10.8967 9.93826 -3.8123
