ITEM: TIMESTEP
1485
ITEM: NUMBER OF ATOMS
18
ITEM: BOX BOUNDS ff ff ff
0.0000000000000000e+00 1.8000000000000000e+01
0.0000000000000000e+00 1.8000000000000000e+01
0.0000000000000000e+00 1.8000000000000000e+01
ITEM: ATOMS id type x y z c_peatom
6 1 8.43545 7.37796 8.53457 -5.36545
14 2 6.62786 7.40569 8.79561 -3.79704
9 2 8.33054 8.95282 7.24119 -4.25018
2 1 11.5882 8.45211 8.46291 -4.9161
5 1 9.84907 8.53442 6.21359 -3.684
7 1 6.40212 9.22312 8.58601 -5.4759
15 2 8.21786 11.7975 7.62801 -3.90271
1 1 9.26908 10.3915 8.31792 -6.06196
13 2 10.8764 9.68172 7.19312 -4.41615
18 2 9.06343 7.37668 10.3755 -2.59888
16 2 10.2072 7.51906 11.311 -1.13815
10 2 5.84914 9.58329 10.3133 -3.38806
3 1 7.39064 10.5534 10.9128 -6.50492
8 2 8.1406 9.29188 9.50237 -4.05872
11 2 9.0213 11.4896 10.0582 -3.94723
17 2 12.287 9.61553 9.38724 -3.35164
4 1 8.12692 12.7658 9.11642 -4.16782
12 2 8.00973 9.51351 12.0882 -2.92061
