ITEM: TIMESTEP
16
ITEM: NUMBER OF ATOMS
384
ITEM: BOX BOUNDS pp pp pp
0.0000000000000000e+00 8.4283000000000001e+00
0.0000000000000000e+00 1.4598200000000000e+01
0.0000000000000000e+00 4.9476269000000002e+01
ITEM: ATOMS id type x y z c_peatom
66 1 2.92401 12.1652 3.61953 -2.2941
67 1 7.13816 4.86606 3.61953 -2.29409
68 1 5.73344 7.2991 5.31004 -6.5982
69 1 7.13816 9.73214 3.61953 -2.29409
70 1 5.73344 12.1652 5.31004 -6.5982
71 1 7.13816 0 3.61953 -2.29408
72 1 5.73344 2.43304 5.31004 -6.5982
73 1 2.92401 7.2991 3.61953 -2.29408
74 1 1.51929 9.73212 5.31004 -6.59819
75 1 2.92401 2.43304 3.61953 -2.29408
76 1 1.51929 4.86606 5.31004 -6.5982
77 1 1.51929 0 5.31004 -6.59819
78 1 0.114574 7.2991 5.80124 -6.54405
79 1 4.32872 9.73212 5.80124 -6.54404
80 1 2.92401 7.2991 7.4917 -6.40207
81 1 0.114574 12.1652 5.80124 -6.54405
82 1 7.13816 9.73214 7.4917 -6.40206
83 1 4.32872 0 5.80124 -6.54405
84 1 2.92401 12.1652 7.4917 -6.40208
85 1 0.114574 2.43304 5.80124 -6.54404
86 1 7.13816 0 7.4917 -6.40207
87 1 4.32872 4.86606 5.80124 -6.54403
88 1 2.92401 2.43304 7.4917 -6.40207
89 1 7.13816 4.86606 7.4917 -6.40206
90 1 5.73344 12.1652 7.98285 -6.40205
93 1 5.73344 7.2991 7.98285 -6.40204
94 1 1.51929 9.73212 7.98285 -6.40204
97 1 5.73344 2.43304 7.98285 -6.40204
98 1 1.51929 4.86606 7.98285 -6.40204
100 1 1.51929 0 7.98285 -6.40204
102 1 4.32872 9.73212 3.12833 -3.27315
103 1 4.32872 4.86606 3.12833 -3.27316
104 1 0.114574 12.1652 3.12833 -3.27315
105 1 0.114574 2.43304 3.12833 -3.27315
106 1 0.114574 7.2991 3.12833 -3.27315
107 1 4.32872 0 3.12833 -3.27314
331 2 3.03858 10.477 4.46474 -3.32409
332 2 1.40472 12.91 4.46474 -3.32409
333 2 4.32872 13.1085 4.46474 -3.32408
334 2 7.25273 3.1779 4.46474 -3.32408
335 2 0.114574 5.80937 4.46474 -3.32409
336 2 5.61887 5.61093 4.46474 -3.32408
337 2 0.114574 10.6754 4.46474 -3.32409
338 2 5.61887 10.477 4.46474 -3.32408
339 2 7.25273 8.04396 4.46474 -3.32409
340 2 0.114574 0.943306 4.46474 -3.32409
341 2 5.61887 0.744873 4.46474 -3.32408
342 2 7.25273 12.91 4.46474 -3.32408
343 2 1.40472 8.04396 4.46474 -3.32407
344 2 4.32872 8.24241 4.46474 -3.32408
345 2 3.03858 5.61092 4.46474 -3.32409
346 2 1.40472 3.1779 4.46474 -3.32408
347 2 4.32872 3.37635 4.46474 -3.32409
348 2 3.03858 0.744859 4.46474 -3.32408
349 2 0.22914 8.98727 6.64644 -4.12705
350 2 7.02359 6.55424 6.64644 -4.12705
351 2 1.51929 6.35579 6.64644 -4.12705
352 2 5.73344 8.78883 6.64644 -4.12705
353 2 2.80944 8.98727 6.64644 -4.12704
354 2 4.44329 11.4203 6.64644 -4.12706
355 2 0.22914 13.8533 6.64644 -4.12706
356 2 7.02359 11.4203 6.64644 -4.12704
357 2 1.51929 11.2219 6.64644 -4.12706
358 2 4.44329 1.68816 6.64644 -4.12706
359 2 5.73344 13.6549 6.64644 -4.12705
360 2 2.80944 13.8533 6.64644 -4.12705
361 2 0.22914 4.1212 6.64644 -4.12705
362 2 1.51929 1.48973 6.64644 -4.12705
363 2 7.02359 1.68816 6.64644 -4.12705
364 2 2.80944 4.1212 6.64644 -4.12704
365 2 5.73344 3.92275 6.64644 -4.12704
366 2 4.44329 6.55424 6.64644 -4.12706
30 1 5.73344 2.43304 14.5279 -6.40125
31 1 4.32872 4.86606 16.2184 -6.39769
32 1 5.73344 12.1652 14.5279 -6.40126
33 1 5.73344 7.2991 14.5279 -6.40126
34 1 4.32872 9.73212 16.2184 -6.33653
35 1 1.51928 4.86606 14.5279 -6.40124
36 1 0.114574 2.43304 16.2184 -6.30634
37 1 1.51928 0 14.5279 -6.40125
38 1 0.114574 12.1652 16.2184 -6.39778
39 1 1.51928 9.73212 14.5279 -6.40124
40 1 0.114574 7.2991 16.2184 -6.34705
41 1 4.32872 0 16.2184 -6.32336
42 1 2.92401 12.1652 10.1646 -6.40196
43 1 2.92401 7.2991 10.1646 -6.40195
44 1 1.51929 9.73212 11.855 -6.4021
45 1 7.13816 4.86606 10.1646 -6.40194
46 1 5.73344 2.43304 11.855 -6.40212
47 1 7.13816 0 10.1646 -6.40195
48 1 5.73344 12.1652 11.855 -6.40212
49 1 7.13816 9.73214 10.1646 -6.40194
50 1 5.73344 7.2991 11.855 -6.40212
51 1 2.92401 2.43304 10.1646 -6.40195
52 1 1.51929 0 11.855 -6.40212
53 1 1.51929 4.86606 11.855 -6.4021
54 1 4.32872 0 12.3462 -6.40196
55 1 2.92401 2.43304 14.0367 -6.38416
56 1 7.13816 0 14.0367 -6.38415
57 1 0.114574 7.2991 12.3462 -6.40197
58 1 0.114574 2.43304 12.3462 -6.40196
59 1 7.13816 4.86606 14.0367 -6.38415
60 1 4.32872 4.86606 12.3462 -6.40196
61 1 2.92401 7.2991 14.0367 -6.38417
62 1 0.114574 12.1652 12.3462 -6.40197
63 1 4.32872 9.73212 12.3462 -6.40196
64 1 7.13816 9.73214 14.0367 -6.38415
65 1 2.92401 12.1652 14.0367 -6.38418
91 1 0.114574 12.1652 9.67335 -6.40208
92 1 4.32872 9.73212 9.67335 -6.40207
95 1 0.114574 7.2991 9.67335 -6.40207
96 1 4.32872 4.86606 9.67335 -6.40207
99 1 0.114574 2.43304 9.67335 -6.40207
101 1 4.32872 0 9.67335 -6.40207
277 2 5.84801 4.1212 15.3731 -4.12743
278 2 7.13816 1.48973 15.3731 -4.12743
279 2 4.21415 1.68818 15.3731 -4.12744
280 2 5.84801 13.8533 15.3731 -4.12743
281 2 7.13816 11.2219 15.3731 -4.12743
282 2 4.21415 11.4203 15.3731 -4.12745
283 2 5.84801 8.98727 15.3731 -4.12743
284 2 7.13816 6.35579 15.3731 -4.12744
285 2 4.21415 6.55424 15.3731 -4.12745
286 2 0 4.1212 15.3731 -4.12742
287 2 2.92401 3.92275 15.3731 -4.12744
288 2 1.63386 6.55424 15.3731 -4.12744
289 2 1.63386 1.68816 15.3731 -4.12743
290 2 0 13.8533 15.3731 -4.12744
291 2 2.92401 13.6549 15.3731 -4.12745
292 2 0 8.98727 15.3731 -4.12744
293 2 2.92401 8.78882 15.3731 -4.12744
294 2 1.63386 11.4203 15.3731 -4.12744
295 2 3.03858 13.8533 11.0098 -4.12708
296 2 1.40472 11.4203 11.0098 -4.12708
297 2 4.32872 11.2219 11.0098 -4.12709
298 2 3.03858 8.98727 11.0098 -4.12707
299 2 1.40472 6.55424 11.0098 -4.12709
300 2 4.32872 6.35579 11.0098 -4.12709
301 2 5.61887 4.1212 11.0098 -4.12707
302 2 0.114574 3.92275 11.0098 -4.12708
303 2 7.25273 6.55424 11.0098 -4.12709
304 2 0.114574 13.6549 11.0098 -4.12709
305 2 5.61887 13.8533 11.0098 -4.12707
306 2 7.25273 1.68818 11.0098 -4.12709
307 2 7.25273 11.4203 11.0098 -4.12707
308 2 5.61887 8.98727 11.0098 -4.12708
309 2 0.114574 8.78882 11.0098 -4.12709
310 2 3.03858 4.1212 11.0098 -4.12707
311 2 4.32872 1.48973 11.0098 -4.12708
312 2 1.40472 1.68816 11.0098 -4.12708
313 2 5.73344 0.943306 13.1914 -4.12709
314 2 2.80944 0.744873 13.1914 -4.12708
315 2 4.44329 12.91 13.1914 -4.1271
316 2 0.22914 5.61093 13.1914 -4.12709
317 2 7.02359 8.04396 13.1914 -4.12709
318 2 1.51929 8.24241 13.1914 -4.12708
319 2 0.22914 0.744873 13.1914 -4.12709
320 2 7.02359 3.1779 13.1914 -4.12708
321 2 1.51929 3.37635 13.1914 -4.12708
322 2 4.44329 3.1779 13.1914 -4.12709
323 2 5.73344 5.80937 13.1914 -4.1271
324 2 2.80944 5.61093 13.1914 -4.12709
325 2 0.22914 10.477 13.1914 -4.12709
326 2 7.02359 12.91 13.1914 -4.12709
327 2 1.51929 13.1085 13.1914 -4.12709
328 2 4.44329 8.04396 13.1914 -4.12709
329 2 5.73344 10.6754 13.1914 -4.12709
330 2 2.80944 10.477 13.1914 -4.12709
367 2 5.84801 10.477 8.8281 -4.12712
368 2 7.13816 13.1085 8.8281 -4.12713
369 2 0 10.477 8.8281 -4.12713
370 2 1.63386 12.91 8.8281 -4.12713
371 2 4.21415 8.04396 8.8281 -4.12713
372 2 5.84801 5.61093 8.8281 -4.12712
373 2 7.13816 8.24241 8.8281 -4.12713
374 2 1.63386 8.04396 8.8281 -4.12711
375 2 2.92401 10.6754 8.8281 -4.12713
376 2 4.21415 3.1779 8.8281 -4.12712
377 2 5.84801 0.744873 8.8281 -4.12712
378 2 7.13816 3.37635 8.8281 -4.12712
379 2 1.63386 3.1779 8.8281 -4.12711
380 2 2.92401 5.80937 8.8281 -4.12713
381 2 2.92401 0.943306 8.8281 -4.12713
382 2 4.21415 12.91 8.8281 -4.12713
383 2 0 0.744859 8.8281 -4.12713
384 2 0 5.61092 8.8281 -4.12714
1 1 5.61888 0.980371 23.812 -3.23001
2 1 0 0.980371 23.812 -3.2324
3 1 0.183067 2.45093 21.1685 -3.66511
4 1 7.4695 4.994 21.3724 -2.47907
5 1 4.33226 4.88696 21.0005 -1.94002
6 1 2.60591 7.60759 21.3619 -2.3565
7 1 6.95102 9.99576 21.6177 -2.31526
8 1 4.30772 9.75773 20.9943 -2.69535
9 1 0.0774198 12.177 21.0035 -2.07905
10 1 6.91104 14.8601 21.4176 -2.60704
11 1 4.29853 0.0215368 21.0302 -2.57934
12 1 2.92401 2.43304 19.0018 -3.84987
13 1 7.13816 4.86606 19.0018 -5.27035
14 1 2.92401 7.2991 19.0018 -5.42009
15 1 7.13816 9.73214 19.0018 -2.8832
16 1 2.92401 12.1652 19.0018 -5.14186
17 1 7.13816 0 19.0018 -5.25117
18 1 4.32872 4.86606 18.5106 -3.1542
19 1 2.92401 7.2991 16.7095 -6.49479
20 1 4.32872 9.73212 18.5106 -5.73682
21 1 2.92401 12.1652 16.7095 -6.50377
22 1 0.114574 12.1652 18.5106 -3.17873
23 1 0.114574 7.2991 18.5106 -5.53867
24 1 7.13816 9.73214 16.7095 -6.58338
25 1 0.114574 2.43304 18.5106 -7.39362
26 1 7.13816 4.86606 16.7095 -6.48068
27 1 4.32872 0 18.5106 -5.68371
28 1 2.92401 2.43304 16.7095 -6.54685
29 1 7.13816 0 16.7095 -6.48321
108 1 2.80944 0.980371 23.812 -3.04114
109 1 7.0236 3.41341 23.8235 -3.17487
110 1 2.80944 5.84643 23.8348 -3.2292
111 1 1.40472 3.41341 23.8235 -3.05724
112 1 5.61888 5.84643 23.8348 -3.20348
113 1 0 5.84643 23.8348 -3.14334
114 1 4.21416 3.41341 23.8235 -3.11823
127 1 7.0236 8.27947 23.8462 -3.16835
128 1 1.40472 8.27947 23.8462 -3.13764
129 1 5.61888 10.7125 23.8576 -3.28272
130 1 0 10.7125 23.8576 -3.33669
131 1 4.21416 8.27947 23.8462 -3.19163
132 1 2.80944 10.7125 23.8576 -3.01309
134 1 4.21416 13.1455 23.869 -3.05998
136 1 7.0236 13.1455 23.869 -3.202
138 1 1.40472 13.1455 23.869 -3.09086
250 2 1.3226 1.59733 19.6634 -2.99945
251 2 7.0785 1.76768 19.7779 -3.19239
252 2 0.25476 4.04228 19.7709 -3.32396
253 2 1.40173 6.54646 19.7031 -2.46901
254 2 7.3783 6.46533 19.7903 -2.48609
255 2 2.68245 9.14038 19.6829 -2.80414
256 2 4.43032 11.3289 19.6253 -2.5972
257 2 5.57927 13.8061 19.7137 -2.83666
258 2 3.10763 13.8402 19.6745 -2.64967
259 2 4.32872 3.37635 17.5548 -3.30586
260 2 3.03858 5.61093 17.5548 -3.45404
261 2 5.61887 5.61093 17.5548 -3.42216
262 2 4.32872 8.24241 17.5548 -3.75197
263 2 3.03858 10.477 17.5548 -3.86912
264 2 5.61887 10.477 17.5548 -3.56085
265 2 1.40472 12.91 17.5548 -3.4402
266 2 7.25273 12.91 17.5548 -3.48878
267 2 0.114574 10.6754 17.5548 -3.24781
268 2 0.114574 5.80937 17.5548 -3.9034
269 2 1.40472 8.04397 17.5548 -3.94679
270 2 7.25273 8.04397 17.5548 -3.4656
271 2 1.40472 3.1779 17.5548 -3.88295
272 2 7.25273 3.1779 17.5548 -3.93096
273 2 0.114574 0.943306 17.5548 -3.90991
274 2 4.32872 13.1085 17.5548 -3.94411
275 2 3.03858 0.744873 17.5548 -3.67567
276 2 5.61887 0.744873 17.5548 -3.89553
115 1 7.0236 5.02485 26.1582 -3.40753
116 1 1.40472 5.02485 26.1582 -3.39692
117 1 5.61888 7.45787 26.1696 -3.3882
118 1 0 7.45787 26.1696 -3.39703
119 1 4.21416 5.02485 26.1582 -3.41304
120 1 2.80944 7.45787 26.1696 -3.40759
121 1 7.0236 9.89091 26.181 -3.40003
122 1 1.40472 9.89091 26.181 -3.39469
123 1 5.61888 12.3239 26.1924 -3.38808
124 1 0 12.3239 26.1924 -3.41
125 1 4.21416 9.89091 26.181 -3.40877
126 1 2.80944 12.3239 26.1924 -3.41402
133 1 4.21416 0.158785 26.1354 -3.41173
135 1 7.0236 0.158785 26.1354 -3.3874
137 1 1.40472 0.158785 26.1354 -3.39159
139 1 5.61888 2.59181 26.1468 -3.38709
140 1 0 2.59181 26.1468 -3.41044
141 1 2.80944 2.59181 26.1468 -3.41272
142 1 5.61888 5.81468 30.8164 -3.35104
143 1 0 5.81468 30.8164 -3.35104
144 1 7.0236 8.24771 30.8277 -3.35103
145 1 1.40472 8.24771 30.8277 -3.35103
146 1 4.21416 8.24771 30.8277 -3.35103
147 1 2.80944 5.81468 30.8164 -3.35104
148 1 7.0236 1.77021 28.4702 -3.35207
149 1 1.40472 1.77021 28.4702 -3.35207
150 1 4.21416 1.77021 28.4702 -3.35207
151 1 7.0236 6.63627 28.493 -3.35105
152 1 1.40472 6.63627 28.493 -3.35104
153 1 5.61888 4.20324 28.4816 -3.35108
154 1 0 4.20324 28.4816 -3.35108
155 1 4.21416 6.63627 28.493 -3.35104
156 1 2.80944 4.20324 28.4816 -3.35108
157 1 5.61888 9.06931 28.5044 -3.35104
158 1 0 9.06931 28.5044 -3.35104
159 1 7.0236 11.5023 28.5158 -3.35223
160 1 1.40472 11.5023 28.5158 -3.35223
161 1 4.21416 11.5023 28.5158 -3.35223
162 1 2.80944 9.06931 28.5044 -3.35104
163 1 2.80944 0.94862 30.7936 -3.3559
164 1 2.80944 13.9354 28.5271 -3.34153
165 1 0 0.94862 30.7936 -3.3559
166 1 0 13.9354 28.5271 -3.34154
167 1 5.61888 0.94862 30.7936 -3.3559
168 1 5.61888 13.9354 28.5271 -3.34153
169 1 7.0236 3.38164 30.805 -3.34972
170 1 1.40472 3.38164 30.805 -3.34972
171 1 4.21416 3.38164 30.805 -3.34972
182 1 4.21416 13.1138 30.8505 -3.35589
183 1 5.61888 10.6807 30.8392 -3.34972
184 1 0 10.6807 30.8392 -3.34973
186 1 7.0236 13.1138 30.8505 -3.3559
188 1 1.40472 13.1138 30.8505 -3.35589
189 1 2.80944 10.6807 30.8392 -3.34972
172 1 5.61888 7.42612 33.1512 -3.35104
173 1 0 7.42612 33.1512 -3.35104
174 1 7.0236 9.85914 33.1626 -3.35108
175 1 1.40472 9.85914 33.1626 -3.35108
176 1 4.21416 9.85914 33.1626 -3.35108
177 1 2.80944 7.42612 33.1512 -3.35104
178 1 5.61888 12.2922 33.1739 -3.35206
179 1 0 12.2922 33.1739 -3.35206
180 1 2.80944 12.2922 33.1739 -3.35206
181 1 4.21416 0.127019 33.117 -3.34154
185 1 7.0236 0.127019 33.117 -3.34154
187 1 1.40472 0.127019 33.117 -3.34154
190 1 5.61888 2.56006 33.1284 -3.35222
191 1 0 2.56006 33.1284 -3.35222
192 1 7.0236 4.99308 33.1397 -3.35105
193 1 1.40472 4.99308 33.1397 -3.35104
194 1 4.21416 4.99308 33.1397 -3.35104
195 1 2.80944 2.56006 33.1284 -3.35222
196 1 5.61888 12.2604 40.1555 -2.97112
197 1 0 12.2604 40.1555 -2.97112
198 1 2.80944 12.2604 40.1555 -2.97111
199 1 7.0236 9.82739 40.1441 -2.97446
200 1 1.40472 9.82739 40.1441 -2.97446
201 1 4.21416 9.82739 40.1441 -2.97446
202 1 5.61888 5.78293 37.7979 -3.43976
203 1 0 5.78293 37.7979 -3.43976
204 1 7.0236 8.21595 37.8093 -3.43975
205 1 1.40472 8.21595 37.8093 -3.43975
206 1 4.21416 8.21595 37.8093 -3.43975
207 1 2.80944 5.78293 37.7979 -3.43976
208 1 4.21416 0.095268 40.0985 -2.9788
209 1 4.21416 13.082 37.8321 -3.44396
210 1 5.61888 2.52829 40.11 -2.97213
211 1 0 2.52829 40.11 -2.97213
212 1 5.61888 10.649 37.8207 -3.43844
213 1 0 10.649 37.8207 -3.43844
214 1 7.0236 0.095268 40.0985 -2.97881
215 1 7.0236 13.082 37.8321 -3.44396
216 1 1.40472 0.095268 40.0985 -2.97881
217 1 1.40472 13.082 37.8321 -3.44396
218 1 2.80944 2.52829 40.11 -2.97213
219 1 2.80944 10.649 37.8207 -3.43844
220 1 7.0236 4.96133 40.1213 -2.97443
221 1 1.40472 4.96133 40.1213 -2.97443
222 1 5.61888 7.39435 40.1327 -2.97441
223 1 0 7.39435 40.1327 -2.97442
224 1 4.21416 4.96133 40.1213 -2.97442
225 1 2.80944 7.39435 40.1327 -2.97441
226 1 5.61888 9.03756 35.4859 -3.35104
227 1 0 9.03756 35.4859 -3.35105
228 1 7.0236 11.4706 35.4973 -3.35223
229 1 1.40472 11.4706 35.4973 -3.35223
230 1 4.21416 11.4706 35.4973 -3.35223
231 1 2.80944 9.03756 35.4859 -3.35104
232 1 2.80944 0.916869 37.7751 -3.4418
233 1 2.80944 13.9036 35.5087 -3.34154
234 1 0 0.916869 37.7751 -3.44181
235 1 0 13.9036 35.5087 -3.34155
236 1 5.61888 0.916869 37.7751 -3.4418
237 1 5.61888 13.9036 35.5087 -3.34154
238 1 7.0236 3.34989 37.7865 -3.43844
239 1 1.40472 3.34989 37.7865 -3.43843
240 1 4.21416 3.34989 37.7865 -3.43843
241 1 7.0236 1.73846 35.4518 -3.35208
242 1 1.40472 1.73846 35.4518 -3.35207
243 1 4.21416 1.73846 35.4518 -3.35207
244 1 7.0236 6.60452 35.4745 -3.35104
245 1 1.40472 6.60452 35.4745 -3.35104
246 1 5.61888 4.17149 35.4632 -3.35108
247 1 0 4.17149 35.4632 -3.35108
248 1 4.21416 6.60452 35.4745 -3.35104
249 1 2.80944 4.17149 35.4632 -3.35108
