ITEM: TIMESTEP
263
ITEM: NUMBER OF ATOMS
18
ITEM: BOX BOUNDS ff ff ff
0.0000000000000000e+00 1.8000000000000000e+01
0.0000000000000000e+00 1.8000000000000000e+01
0.0000000000000000e+00 1.8000000000000000e+01
ITEM: ATOMS id type x y z c_peatom 
14 2 9.1667 7.04826 5.46073 -2.84065 
10 2 8.01658 7.10767 7.75308 -3.2012 
11 2 6.02918 8.63862 8.62609 -2.64469 
7 1 7.71567 8.65251 8.99439 -8.24977 
6 1 9.54753 7.67516 7.00038 -6.48395 
2 1 7.70193 9.92522 6.09353 -2.87827 
8 2 8.8001 9.54169 7.32193 -4.67126 
17 2 11.6319 10.3307 8.31709 -2.72426 
15 2 7.65633 7.0778 10.1072 -3.20469 
5 1 9.4052 7.0088 10.7243 -5.96787 
13 2 9.82149 8.20845 9.23257 -3.36686 
16 2 9.12365 8.13301 11.93 -3.03548 
3 1 7.87428 11.2496 10.0004 -3.3158 
18 2 7.51829 9.77154 10.663 -4.34284 
1 1 10.9278 9.88581 9.80267 -7.61003 
9 2 11.0477 11.6753 10.7086 -4.3511 
12 2 12.3252 9.18799 10.4677 -2.74498 
4 1 10.073 11.3292 12.0054 -3.32216 
