ITEM: TIMESTEP
1019
ITEM: NUMBER OF ATOMS
16
ITEM: BOX BOUNDS ff ff ff
0.0000000000000000e+00 1.8000000000000000e+01
0.0000000000000000e+00 1.8000000000000000e+01
0.0000000000000000e+00 1.8000000000000000e+01
ITEM: ATOMS id type x y z c_peatom
2 1 7.19024 7.57711 8.58896 -5.48393
8 2 8.90096 7.4565 8.16032 -3.19976
10 2 7.2381 8.7275 7.20978 -3.04723
7 2 11.5141 7.51247 8.88667 -3.71353
12 2 11.2164 7.53532 6.31334 -2.94832
1 1 11.9252 8.59764 7.4031 -6.31755
11 2 8.83731 11.3124 8.83094 -3.57989
13 2 8.53224 10.5478 6.6765 -2.61669
3 1 9.08145 9.54505 7.98769 -8.47882
9 2 10.7611 10.0217 7.12517 -3.10998
5 1 8.38307 8.95287 11.0495 -5.211
6 1 11.1587 8.7429 10.1417 -4.46706
16 2 9.77226 7.74965 10.6864 -3.89195
14 2 8.90348 10.7352 11.4691 -3.7961
15 2 7.50267 9.28111 9.42274 -3.79227
4 1 10.0284 11.2375 10.1481 -4.51652
