ITEM: TIMESTEP
26
ITEM: NUMBER OF ATOMS
384
ITEM: BOX BOUNDS pp pp pp
0.0000000000000000e+00 8.4283000000000001e+00
0.0000000000000000e+00 1.4598200000000000e+01
0.0000000000000000e+00 4.9476269000000002e+01
ITEM: ATOMS id type x y z c_peatom
59 1 2.92401 12.1652 3.61953 -2.2941
60 1 7.13816 4.86606 3.61953 -2.29409
61 1 5.73344 7.2991 5.31004 -6.5982
62 1 7.13816 9.73214 3.61953 -2.29409
63 1 5.73344 12.1652 5.31004 -6.5982
64 1 7.13816 0 3.61953 -2.29408
65 1 5.73344 2.43304 5.31004 -6.5982
66 1 2.92401 7.2991 3.61953 -2.29408
67 1 1.51929 9.73212 5.31004 -6.59819
68 1 2.92401 2.43304 3.61953 -2.29408
69 1 1.51929 4.86606 5.31004 -6.5982
70 1 1.51929 0 5.31004 -6.59819
71 1 0.114574 7.2991 5.80124 -6.54405
72 1 4.32872 9.73212 5.80124 -6.54404
73 1 2.92401 7.2991 7.4917 -6.40207
74 1 0.114574 12.1652 5.80124 -6.54405
75 1 7.13816 9.73214 7.4917 -6.40206
76 1 4.32872 0 5.80124 -6.54405
77 1 2.92401 12.1652 7.4917 -6.40208
78 1 0.114574 2.43304 5.80124 -6.54404
79 1 7.13816 0 7.4917 -6.40207
80 1 4.32872 4.86606 5.80124 -6.54403
81 1 2.92401 2.43304 7.4917 -6.40207
82 1 7.13816 4.86606 7.4917 -6.40206
83 1 5.73344 12.1652 7.98285 -6.40205
86 1 5.73344 7.2991 7.98285 -6.40204
87 1 1.51929 9.73212 7.98285 -6.40204
90 1 5.73344 2.43304 7.98285 -6.40204
91 1 1.51929 4.86606 7.98285 -6.40204
93 1 1.51929 0 7.98285 -6.40204
95 1 4.32872 9.73212 3.12833 -3.27315
96 1 4.32872 4.86606 3.12833 -3.27316
97 1 0.114574 12.1652 3.12833 -3.27315
98 1 0.114574 2.43304 3.12833 -3.27315
99 1 0.114574 7.2991 3.12833 -3.27315
100 1 4.32872 0 3.12833 -3.27314
325 2 3.03858 10.477 4.46474 -3.32409
326 2 1.40472 12.91 4.46474 -3.32409
327 2 4.32872 13.1085 4.46474 -3.32408
328 2 7.25273 3.1779 4.46474 -3.32408
329 2 0.114574 5.80937 4.46474 -3.32409
330 2 5.61887 5.61093 4.46474 -3.32408
331 2 0.114574 10.6754 4.46474 -3.32409
332 2 5.61887 10.477 4.46474 -3.32408
333 2 7.25273 8.04396 4.46474 -3.32409
334 2 0.114574 0.943306 4.46474 -3.32409
335 2 5.61887 0.744873 4.46474 -3.32408
336 2 7.25273 12.91 4.46474 -3.32408
337 2 1.40472 8.04396 4.46474 -3.32407
338 2 4.32872 8.24241 4.46474 -3.32408
339 2 3.03858 5.61092 4.46474 -3.32409
340 2 1.40472 3.1779 4.46474 -3.32408
341 2 4.32872 3.37635 4.46474 -3.32409
342 2 3.03858 0.744859 4.46474 -3.32408
343 2 0.22914 8.98727 6.64644 -4.12705
344 2 7.02359 6.55424 6.64644 -4.12705
345 2 1.51929 6.35579 6.64644 -4.12705
346 2 5.73344 8.78883 6.64644 -4.12705
347 2 2.80944 8.98727 6.64644 -4.12704
348 2 4.44329 11.4203 6.64644 -4.12706
349 2 0.22914 13.8533 6.64644 -4.12706
350 2 7.02359 11.4203 6.64644 -4.12704
351 2 1.51929 11.2219 6.64644 -4.12706
352 2 4.44329 1.68816 6.64644 -4.12706
353 2 5.73344 13.6549 6.64644 -4.12705
354 2 2.80944 13.8533 6.64644 -4.12705
355 2 0.22914 4.1212 6.64644 -4.12705
356 2 1.51929 1.48973 6.64644 -4.12705
357 2 7.02359 1.68816 6.64644 -4.12705
358 2 2.80944 4.1212 6.64644 -4.12704
359 2 5.73344 3.92275 6.64644 -4.12704
360 2 4.44329 6.55424 6.64644 -4.12706
23 1 5.73344 2.43304 14.5279 -6.40125
24 1 4.32872 4.86606 16.2184 -6.40391
25 1 5.73344 12.1652 14.5279 -6.40126
26 1 5.73344 7.2991 14.5279 -6.40126
27 1 4.32872 9.73212 16.2184 -6.33435
28 1 1.51928 4.86606 14.5279 -6.40124
29 1 0.114574 2.43304 16.2184 -6.41998
30 1 1.51928 0 14.5279 -6.40125
31 1 0.114574 12.1652 16.2184 -6.34289
32 1 1.51928 9.73212 14.5279 -6.40124
33 1 0.114574 7.2991 16.2184 -6.37788
34 1 4.32872 0 16.2184 -6.37855
35 1 2.92401 12.1652 10.1646 -6.40196
36 1 2.92401 7.2991 10.1646 -6.40195
37 1 1.51929 9.73212 11.855 -6.4021
38 1 7.13816 4.86606 10.1646 -6.40194
39 1 5.73344 2.43304 11.855 -6.40212
40 1 7.13816 0 10.1646 -6.40195
41 1 5.73344 12.1652 11.855 -6.40212
42 1 7.13816 9.73214 10.1646 -6.40194
43 1 5.73344 7.2991 11.855 -6.40212
44 1 2.92401 2.43304 10.1646 -6.40195
45 1 1.51929 0 11.855 -6.40212
46 1 1.51929 4.86606 11.855 -6.4021
47 1 4.32872 0 12.3462 -6.40196
48 1 2.92401 2.43304 14.0367 -6.38416
49 1 7.13816 0 14.0367 -6.38415
50 1 0.114574 7.2991 12.3462 -6.40197
51 1 0.114574 2.43304 12.3462 -6.40196
52 1 7.13816 4.86606 14.0367 -6.38415
53 1 4.32872 4.86606 12.3462 -6.40196
54 1 2.92401 7.2991 14.0367 -6.38417
55 1 0.114574 12.1652 12.3462 -6.40197
56 1 4.32872 9.73212 12.3462 -6.40196
57 1 7.13816 9.73214 14.0367 -6.38415
58 1 2.92401 12.1652 14.0367 -6.38418
84 1 0.114574 12.1652 9.67335 -6.40208
85 1 4.32872 9.73212 9.67335 -6.40207
88 1 0.114574 7.2991 9.67335 -6.40207
89 1 4.32872 4.86606 9.67335 -6.40207
92 1 0.114574 2.43304 9.67335 -6.40207
94 1 4.32872 0 9.67335 -6.40207
271 2 5.84801 4.1212 15.3731 -4.12743
272 2 7.13816 1.48973 15.3731 -4.12743
273 2 4.21415 1.68818 15.3731 -4.12744
274 2 5.84801 13.8533 15.3731 -4.12743
275 2 7.13816 11.2219 15.3731 -4.12743
276 2 4.21415 11.4203 15.3731 -4.12745
277 2 5.84801 8.98727 15.3731 -4.12743
278 2 7.13816 6.35579 15.3731 -4.12744
279 2 4.21415 6.55424 15.3731 -4.12745
280 2 0 4.1212 15.3731 -4.12742
281 2 2.92401 3.92275 15.3731 -4.12744
282 2 1.63386 6.55424 15.3731 -4.12744
283 2 1.63386 1.68816 15.3731 -4.12743
284 2 0 13.8533 15.3731 -4.12744
285 2 2.92401 13.6549 15.3731 -4.12745
286 2 0 8.98727 15.3731 -4.12744
287 2 2.92401 8.78882 15.3731 -4.12744
288 2 1.63386 11.4203 15.3731 -4.12744
289 2 3.03858 13.8533 11.0098 -4.12708
290 2 1.40472 11.4203 11.0098 -4.12708
291 2 4.32872 11.2219 11.0098 -4.12709
292 2 3.03858 8.98727 11.0098 -4.12707
293 2 1.40472 6.55424 11.0098 -4.12709
294 2 4.32872 6.35579 11.0098 -4.12709
295 2 5.61887 4.1212 11.0098 -4.12707
296 2 0.114574 3.92275 11.0098 -4.12708
297 2 7.25273 6.55424 11.0098 -4.12709
298 2 0.114574 13.6549 11.0098 -4.12709
299 2 5.61887 13.8533 11.0098 -4.12707
300 2 7.25273 1.68818 11.0098 -4.12709
301 2 7.25273 11.4203 11.0098 -4.12707
302 2 5.61887 8.98727 11.0098 -4.12708
303 2 0.114574 8.78882 11.0098 -4.12709
304 2 3.03858 4.1212 11.0098 -4.12707
305 2 4.32872 1.48973 11.0098 -4.12708
306 2 1.40472 1.68816 11.0098 -4.12708
307 2 5.73344 0.943306 13.1914 -4.12709
308 2 2.80944 0.744873 13.1914 -4.12708
309 2 4.44329 12.91 13.1914 -4.1271
310 2 0.22914 5.61093 13.1914 -4.12709
311 2 7.02359 8.04396 13.1914 -4.12709
312 2 1.51929 8.24241 13.1914 -4.12708
313 2 0.22914 0.744873 13.1914 -4.12709
314 2 7.02359 3.1779 13.1914 -4.12708
315 2 1.51929 3.37635 13.1914 -4.12708
316 2 4.44329 3.1779 13.1914 -4.12709
317 2 5.73344 5.80937 13.1914 -4.1271
318 2 2.80944 5.61093 13.1914 -4.12709
319 2 0.22914 10.477 13.1914 -4.12709
320 2 7.02359 12.91 13.1914 -4.12709
321 2 1.51929 13.1085 13.1914 -4.12709
322 2 4.44329 8.04396 13.1914 -4.12709
323 2 5.73344 10.6754 13.1914 -4.12709
324 2 2.80944 10.477 13.1914 -4.12709
361 2 5.84801 10.477 8.8281 -4.12712
362 2 7.13816 13.1085 8.8281 -4.12713
363 2 0 10.477 8.8281 -4.12713
364 2 1.63386 12.91 8.8281 -4.12713
365 2 4.21415 8.04396 8.8281 -4.12713
366 2 5.84801 5.61093 8.8281 -4.12712
367 2 7.13816 8.24241 8.8281 -4.12713
368 2 1.63386 8.04396 8.8281 -4.12711
369 2 2.92401 10.6754 8.8281 -4.12713
370 2 4.21415 3.1779 8.8281 -4.12712
371 2 5.84801 0.744873 8.8281 -4.12712
372 2 7.13816 3.37635 8.8281 -4.12712
373 2 1.63386 3.1779 8.8281 -4.12711
374 2 2.92401 5.80937 8.8281 -4.12713
375 2 2.92401 0.943306 8.8281 -4.12713
376 2 4.21415 12.91 8.8281 -4.12713
377 2 0 0.744859 8.8281 -4.12713
378 2 0 5.61092 8.8281 -4.12714
1 1 5.61888 0.980371 23.812 -3.02688
2 1 0 0.980371 23.812 -2.91887
3 1 2.80944 0.980371 23.812 -3.13442
4 1 5.95464 13.1303 21.5233 -3.18547
5 1 7.13816 0 19.0018 -2.52555
6 1 2.92401 7.2991 19.0018 -4.0763
7 1 5.57583 10.0466 21.2155 -2.69058
8 1 7.13816 9.73214 19.0018 -4.09243
9 1 2.92401 12.1652 19.0018 -5.12563
10 1 4.32872 4.86606 18.5106 -3.10841
11 1 2.92401 7.2991 16.7095 -6.54251
12 1 4.32872 9.73212 18.5106 -5.82813
13 1 2.92401 12.1652 16.7095 -6.51176
14 1 0.114574 12.1652 18.5106 -4.83321
15 1 0.114574 7.2991 18.5106 -4.37796
16 1 7.13816 9.73214 16.7095 -6.51599
17 1 0.114574 2.43304 18.5106 -2.99829
18 1 7.13816 4.86606 16.7095 -6.61454
19 1 4.32872 0 18.5106 -3.33071
20 1 2.92401 2.43304 16.7095 -6.59297
21 1 7.13816 0 16.7095 -6.5406
22 1 3.10358 13.8434 21.2956 -2.20828
101 1 7.13816 4.86606 19.0018 -2.71861
102 1 2.92401 2.43304 19.0018 -2.8156
103 1 6.89409 4.80879 21.6406 -1.53803
104 1 -0.245185 9.0779 21.4314 -1.86748
105 1 7.0236 3.41341 23.8235 -3.22116
106 1 1.40472 3.41341 23.8235 -2.94752
107 1 5.61888 5.84643 23.8348 -3.20035
108 1 0 5.84643 23.8348 -3.16748
109 1 4.21416 3.41341 23.8235 -2.93939
110 1 2.80944 5.84643 23.8348 -2.95022
123 1 7.0236 8.27947 23.8462 -3.26434
124 1 1.40472 8.27947 23.8462 -3.17492
125 1 5.61888 10.7125 23.8576 -3.21202
126 1 0 10.7125 23.8576 -3.15162
127 1 4.21416 8.27947 23.8462 -3.02737
128 1 2.80944 10.7125 23.8576 -2.91745
130 1 4.21416 13.1455 23.869 -3.29469
132 1 7.0236 13.1455 23.869 -3.25054
134 1 1.40472 13.1455 23.869 -3.23364
246 1 2.4311 4.62582 20.0748 -3.87421
247 1 0.208366 13.1716 21.0185 -2.79052
248 2 7.05863 12.3836 19.9372 -2.01993
249 2 1.45602 6.21378 19.4533 -3.09909
250 2 5.63868 8.90545 19.5916 -2.72969
251 2 1.4375 11.0822 19.5639 -1.98532
252 2 4.32872 3.37635 17.5548 -3.11087
253 2 3.03858 5.61093 17.5548 -3.51316
254 2 5.61887 5.61093 17.5548 -3.2481
255 2 4.32872 8.24241 17.5548 -3.432
256 2 3.03858 10.477 17.5548 -3.92704
257 2 5.61887 10.477 17.5548 -3.7997
258 2 1.40472 12.91 17.5548 -3.59736
259 2 7.25273 12.91 17.5548 -3.70912
260 2 0.114574 10.6754 17.5548 -3.39173
261 2 0.114574 5.80937 17.5548 -3.47919
262 2 1.40472 8.04397 17.5548 -3.53582
263 2 7.25273 8.04397 17.5548 -3.57007
264 2 1.40472 3.1779 17.5548 -3.10559
265 2 7.25273 3.1779 17.5548 -3.24822
266 2 0.114574 0.943306 17.5548 -2.96539
267 2 4.32872 13.1085 17.5548 -3.32603
268 2 3.03858 0.744873 17.5548 -3.73854
269 2 5.61887 0.744873 17.5548 -2.86895
270 2 2.83905 0.561299 19.7983 -1.25785
379 2 1.45064 5.07841 21.6356 -1.13422
380 2 3.19076 6.16426 20.9423 -1.40477
381 2 5.62744 2.16155 21.0975 -2.38564
382 2 7.22746 14.5379 20.9309 -1.71073
383 2 4.56706 11.2344 19.6818 -2.47792
384 2 6.77624 2.71546 21.1566 -2.42065
111 1 7.0236 5.02485 26.1582 -3.41574
112 1 1.40472 5.02485 26.1582 -3.428
113 1 5.61888 7.45787 26.1696 -3.40393
114 1 0 7.45787 26.1696 -3.40584
115 1 4.21416 5.02485 26.1582 -3.42627
116 1 2.80944 7.45787 26.1696 -3.41716
117 1 7.0236 9.89091 26.181 -3.40729
118 1 1.40472 9.89091 26.181 -3.42823
119 1 5.61888 12.3239 26.1924 -3.37984
120 1 0 12.3239 26.1924 -3.38726
121 1 4.21416 9.89091 26.181 -3.41939
122 1 2.80944 12.3239 26.1924 -3.40344
129 1 4.21416 0.158785 26.1354 -3.4106
131 1 7.0236 0.158785 26.1354 -3.40915
133 1 1.40472 0.158785 26.1354 -3.41449
135 1 5.61888 2.59181 26.1468 -3.41432
136 1 0 2.59181 26.1468 -3.42364
137 1 2.80944 2.59181 26.1468 -3.42869
138 1 5.61888 5.81468 30.8164 -3.35104
139 1 0 5.81468 30.8164 -3.35104
140 1 7.0236 8.24771 30.8277 -3.35103
141 1 1.40472 8.24771 30.8277 -3.35103
142 1 4.21416 8.24771 30.8277 -3.35103
143 1 2.80944 5.81468 30.8164 -3.35104
144 1 7.0236 1.77021 28.4702 -3.35207
145 1 1.40472 1.77021 28.4702 -3.35207
146 1 4.21416 1.77021 28.4702 -3.35207
147 1 7.0236 6.63627 28.493 -3.35105
148 1 1.40472 6.63627 28.493 -3.35104
149 1 5.61888 4.20324 28.4816 -3.35108
150 1 0 4.20324 28.4816 -3.35108
151 1 4.21416 6.63627 28.493 -3.35104
152 1 2.80944 4.20324 28.4816 -3.35108
153 1 5.61888 9.06931 28.5044 -3.35104
154 1 0 9.06931 28.5044 -3.35104
155 1 7.0236 11.5023 28.5158 -3.35223
156 1 1.40472 11.5023 28.5158 -3.35223
157 1 4.21416 11.5023 28.5158 -3.35223
158 1 2.80944 9.06931 28.5044 -3.35104
159 1 2.80944 0.94862 30.7936 -3.3559
160 1 2.80944 13.9354 28.5271 -3.34153
161 1 0 0.94862 30.7936 -3.3559
162 1 0 13.9354 28.5271 -3.34154
163 1 5.61888 0.94862 30.7936 -3.3559
164 1 5.61888 13.9354 28.5271 -3.34153
165 1 7.0236 3.38164 30.805 -3.34972
166 1 1.40472 3.38164 30.805 -3.34972
167 1 4.21416 3.38164 30.805 -3.34972
178 1 4.21416 13.1138 30.8505 -3.35589
179 1 5.61888 10.6807 30.8392 -3.34972
180 1 0 10.6807 30.8392 -3.34973
182 1 7.0236 13.1138 30.8505 -3.3559
184 1 1.40472 13.1138 30.8505 -3.35589
185 1 2.80944 10.6807 30.8392 -3.34972
168 1 5.61888 7.42612 33.1512 -3.35104
169 1 0 7.42612 33.1512 -3.35104
170 1 7.0236 9.85914 33.1626 -3.35108
171 1 1.40472 9.85914 33.1626 -3.35108
172 1 4.21416 9.85914 33.1626 -3.35108
173 1 2.80944 7.42612 33.1512 -3.35104
174 1 5.61888 12.2922 33.1739 -3.35206
175 1 0 12.2922 33.1739 -3.35206
176 1 2.80944 12.2922 33.1739 -3.35206
177 1 4.21416 0.127019 33.117 -3.34154
181 1 7.0236 0.127019 33.117 -3.34154
183 1 1.40472 0.127019 33.117 -3.34154
186 1 5.61888 2.56006 33.1284 -3.35222
187 1 0 2.56006 33.1284 -3.35222
188 1 7.0236 4.99308 33.1397 -3.35105
189 1 1.40472 4.99308 33.1397 -3.35104
190 1 4.21416 4.99308 33.1397 -3.35104
191 1 2.80944 2.56006 33.1284 -3.35222
192 1 5.61888 12.2604 40.1555 -2.97112
193 1 0 12.2604 40.1555 -2.97112
194 1 2.80944 12.2604 40.1555 -2.97111
195 1 7.0236 9.82739 40.1441 -2.97446
196 1 1.40472 9.82739 40.1441 -2.97446
197 1 4.21416 9.82739 40.1441 -2.97446
198 1 5.61888 5.78293 37.7979 -3.43976
199 1 0 5.78293 37.7979 -3.43976
200 1 7.0236 8.21595 37.8093 -3.43975
201 1 1.40472 8.21595 37.8093 -3.43975
202 1 4.21416 8.21595 37.8093 -3.43975
203 1 2.80944 5.78293 37.7979 -3.43976
204 1 4.21416 0.095268 40.0985 -2.9788
205 1 4.21416 13.082 37.8321 -3.44396
206 1 5.61888 2.52829 40.11 -2.97213
207 1 0 2.52829 40.11 -2.97213
208 1 5.61888 10.649 37.8207 -3.43844
209 1 0 10.649 37.8207 -3.43844
210 1 7.0236 0.095268 40.0985 -2.97881
211 1 7.0236 13.082 37.8321 -3.44396
212 1 1.40472 0.095268 40.0985 -2.97881
213 1 1.40472 13.082 37.8321 -3.44396
214 1 2.80944 2.52829 40.11 -2.97213
215 1 2.80944 10.649 37.8207 -3.43844
216 1 7.0236 4.96133 40.1213 -2.97443
217 1 1.40472 4.96133 40.1213 -2.97443
218 1 5.61888 7.39435 40.1327 -2.97441
219 1 0 7.39435 40.1327 -2.97442
220 1 4.21416 4.96133 40.1213 -2.97442
221 1 2.80944 7.39435 40.1327 -2.97441
222 1 5.61888 9.03756 35.4859 -3.35104
223 1 0 9.03756 35.4859 -3.35105
224 1 7.0236 11.4706 35.4973 -3.35223
225 1 1.40472 11.4706 35.4973 -3.35223
226 1 4.21416 11.4706 35.4973 -3.35223
227 1 2.80944 9.03756 35.4859 -3.35104
228 1 2.80944 0.916869 37.7751 -3.4418
229 1 2.80944 13.9036 35.5087 -3.34154
230 1 0 0.916869 37.7751 -3.44181
231 1 0 13.9036 35.5087 -3.34155
232 1 5.61888 0.916869 37.7751 -3.4418
233 1 5.61888 13.9036 35.5087 -3.34154
234 1 7.0236 3.34989 37.7865 -3.43844
235 1 1.40472 3.34989 37.7865 -3.43843
236 1 4.21416 3.34989 37.7865 -3.43843
237 1 7.0236 1.73846 35.4518 -3.35208
238 1 1.40472 1.73846 35.4518 -3.35207
239 1 4.21416 1.73846 35.4518 -3.35207
240 1 7.0236 6.60452 35.4745 -3.35104
241 1 1.40472 6.60452 35.4745 -3.35104
242 1 5.61888 4.17149 35.4632 -3.35108
243 1 0 4.17149 35.4632 -3.35108
244 1 4.21416 6.60452 35.4745 -3.35104
245 1 2.80944 4.17149 35.4632 -3.35108
