ITEM: TIMESTEP
49
ITEM: NUMBER OF ATOMS
386
ITEM: BOX BOUNDS pp pp pp
0.0000000000000000e+00 8.4283000000000001e+00
0.0000000000000000e+00 1.4598200000000000e+01
0.0000000000000000e+00 4.9476269000000002e+01
ITEM: ATOMS id type x y z c_peatom
76 1 2.92401 12.1652 3.61953 -2.2941
77 1 7.13816 4.86606 3.61953 -2.29409
78 1 5.73344 7.2991 5.31004 -6.5982
79 1 7.13816 9.73214 3.61953 -2.29409
80 1 5.73344 12.1652 5.31004 -6.5982
81 1 7.13816 0 3.61953 -2.29408
82 1 5.73344 2.43304 5.31004 -6.5982
83 1 2.92401 7.2991 3.61953 -2.29408
84 1 1.51929 9.73212 5.31004 -6.59819
85 1 2.92401 2.43304 3.61953 -2.29408
86 1 1.51929 4.86606 5.31004 -6.5982
87 1 1.51929 0 5.31004 -6.59819
88 1 0.114574 7.2991 5.80124 -6.54405
89 1 4.32872 9.73212 5.80124 -6.54404
90 1 2.92401 7.2991 7.4917 -6.40207
91 1 0.114574 12.1652 5.80124 -6.54405
92 1 7.13816 9.73214 7.4917 -6.40206
93 1 4.32872 0 5.80124 -6.54405
94 1 2.92401 12.1652 7.4917 -6.40208
95 1 0.114574 2.43304 5.80124 -6.54404
96 1 7.13816 0 7.4917 -6.40207
97 1 4.32872 4.86606 5.80124 -6.54403
98 1 2.92401 2.43304 7.4917 -6.40207
99 1 7.13816 4.86606 7.4917 -6.40206
100 1 5.73344 12.1652 7.98285 -6.40205
103 1 5.73344 7.2991 7.98285 -6.40204
104 1 1.51929 9.73212 7.98285 -6.40204
107 1 5.73344 2.43304 7.98285 -6.40204
108 1 1.51929 4.86606 7.98285 -6.40204
110 1 1.51929 0 7.98285 -6.40204
112 1 4.32872 9.73212 3.12833 -3.27315
113 1 4.32872 4.86606 3.12833 -3.27316
114 1 0.114574 12.1652 3.12833 -3.27315
115 1 0.114574 2.43304 3.12833 -3.27315
116 1 0.114574 7.2991 3.12833 -3.27315
117 1 4.32872 0 3.12833 -3.27314
325 2 3.03858 10.477 4.46474 -3.32409
326 2 1.40472 12.91 4.46474 -3.32409
327 2 4.32872 13.1085 4.46474 -3.32408
328 2 7.25273 3.1779 4.46474 -3.32408
329 2 0.114574 5.80937 4.46474 -3.32409
330 2 5.61887 5.61093 4.46474 -3.32408
331 2 0.114574 10.6754 4.46474 -3.32409
332 2 5.61887 10.477 4.46474 -3.32408
333 2 7.25273 8.04396 4.46474 -3.32409
334 2 0.114574 0.943306 4.46474 -3.32409
335 2 5.61887 0.744873 4.46474 -3.32408
336 2 7.25273 12.91 4.46474 -3.32408
337 2 1.40472 8.04396 4.46474 -3.32407
338 2 4.32872 8.24241 4.46474 -3.32408
339 2 3.03858 5.61092 4.46474 -3.32409
340 2 1.40472 3.1779 4.46474 -3.32408
341 2 4.32872 3.37635 4.46474 -3.32409
342 2 3.03858 0.744859 4.46474 -3.32408
343 2 0.22914 8.98727 6.64644 -4.12705
344 2 7.02359 6.55424 6.64644 -4.12705
345 2 1.51929 6.35579 6.64644 -4.12705
346 2 5.73344 8.78883 6.64644 -4.12705
347 2 2.80944 8.98727 6.64644 -4.12704
348 2 4.44329 11.4203 6.64644 -4.12706
349 2 0.22914 13.8533 6.64644 -4.12706
350 2 7.02359 11.4203 6.64644 -4.12704
351 2 1.51929 11.2219 6.64644 -4.12706
352 2 4.44329 1.68816 6.64644 -4.12706
353 2 5.73344 13.6549 6.64644 -4.12705
354 2 2.80944 13.8533 6.64644 -4.12705
355 2 0.22914 4.1212 6.64644 -4.12705
356 2 1.51929 1.48973 6.64644 -4.12705
357 2 7.02359 1.68816 6.64644 -4.12705
358 2 2.80944 4.1212 6.64644 -4.12704
359 2 5.73344 3.92275 6.64644 -4.12704
360 2 4.44329 6.55424 6.64644 -4.12706
40 1 5.73344 2.43304 14.5279 -6.40134
41 1 4.32872 4.86606 16.2184 -6.38623
42 1 5.73344 12.1652 14.5279 -6.40126
43 1 5.73344 7.2991 14.5279 -6.40126
44 1 4.32872 9.73212 16.2184 -6.38719
45 1 1.51928 4.86606 14.5279 -6.40181
46 1 0.114574 2.43304 16.2184 -6.40988
47 1 1.51928 0 14.5279 -6.40178
48 1 0.114574 12.1652 16.2184 -6.32881
49 1 1.51928 9.73212 14.5279 -6.40124
50 1 0.114574 7.2991 16.2184 -6.32849
51 1 4.32872 0 16.2184 -6.38616
52 1 2.92401 12.1652 10.1646 -6.40196
53 1 2.92401 7.2991 10.1646 -6.40195
54 1 1.51929 9.73212 11.855 -6.4021
55 1 7.13816 4.86606 10.1646 -6.40194
56 1 5.73344 2.43304 11.855 -6.40212
57 1 7.13816 0 10.1646 -6.40195
58 1 5.73344 12.1652 11.855 -6.40212
59 1 7.13816 9.73214 10.1646 -6.40194
60 1 5.73344 7.2991 11.855 -6.40212
61 1 2.92401 2.43304 10.1646 -6.40195
62 1 1.51929 0 11.855 -6.40212
63 1 1.51929 4.86606 11.855 -6.4021
64 1 4.32872 0 12.3462 -6.40196
65 1 2.92401 2.43304 14.0367 -6.38705
66 1 7.13816 0 14.0367 -6.38415
67 1 0.114574 7.2991 12.3462 -6.40197
68 1 0.114574 2.43304 12.3462 -6.40196
69 1 7.13816 4.86606 14.0367 -6.38415
70 1 4.32872 4.86606 12.3462 -6.40196
71 1 2.92401 7.2991 14.0367 -6.38417
72 1 0.114574 12.1652 12.3462 -6.40197
73 1 4.32872 9.73212 12.3462 -6.40196
74 1 7.13816 9.73214 14.0367 -6.38415
75 1 2.92401 12.1652 14.0367 -6.38418
101 1 0.114574 12.1652 9.67335 -6.40208
102 1 4.32872 9.73212 9.67335 -6.40207
105 1 0.114574 7.2991 9.67335 -6.40207
106 1 4.32872 4.86606 9.67335 -6.40207
109 1 0.114574 2.43304 9.67335 -6.40207
111 1 4.32872 0 9.67335 -6.40207
271 2 5.84801 4.1212 15.3731 -4.12743
272 2 7.13816 1.48973 15.3731 -4.12743
273 2 4.21415 1.68818 15.3731 -4.12744
274 2 5.84801 13.8533 15.3731 -4.12743
275 2 7.13816 11.2219 15.3731 -4.12743
276 2 4.21415 11.4203 15.3731 -4.12745
277 2 5.84801 8.98727 15.3731 -4.12743
278 2 7.13816 6.35579 15.3731 -4.12744
279 2 4.21415 6.55424 15.3731 -4.12745
280 2 0 4.1212 15.3731 -4.12742
281 2 2.92401 3.92275 15.3731 -4.12744
282 2 1.63386 6.55424 15.3731 -4.12744
283 2 1.63386 1.68816 15.3731 -4.12743
284 2 0 13.8533 15.3731 -4.12744
285 2 2.92401 13.6549 15.3731 -4.12745
286 2 0 8.98727 15.3731 -4.12744
287 2 2.92401 8.78882 15.3731 -4.12744
288 2 1.63386 11.4203 15.3731 -4.12744
289 2 3.03858 13.8533 11.0098 -4.12708
290 2 1.40472 11.4203 11.0098 -4.12708
291 2 4.32872 11.2219 11.0098 -4.12709
292 2 3.03858 8.98727 11.0098 -4.12707
293 2 1.40472 6.55424 11.0098 -4.12709
294 2 4.32872 6.35579 11.0098 -4.12709
295 2 5.61887 4.1212 11.0098 -4.12707
296 2 0.114574 3.92275 11.0098 -4.12708
297 2 7.25273 6.55424 11.0098 -4.12709
298 2 0.114574 13.6549 11.0098 -4.12709
299 2 5.61887 13.8533 11.0098 -4.12707
300 2 7.25273 1.68818 11.0098 -4.12709
301 2 7.25273 11.4203 11.0098 -4.12707
302 2 5.61887 8.98727 11.0098 -4.12708
303 2 0.114574 8.78882 11.0098 -4.12709
304 2 3.03858 4.1212 11.0098 -4.12707
305 2 4.32872 1.48973 11.0098 -4.12708
306 2 1.40472 1.68816 11.0098 -4.12708
307 2 5.73344 0.943306 13.1914 -4.12709
308 2 2.80944 0.744873 13.1914 -4.12708
309 2 4.44329 12.91 13.1914 -4.1271
310 2 0.22914 5.61093 13.1914 -4.12709
311 2 7.02359 8.04396 13.1914 -4.12709
312 2 1.51929 8.24241 13.1914 -4.12708
313 2 0.22914 0.744873 13.1914 -4.12709
314 2 7.02359 3.1779 13.1914 -4.12708
315 2 1.51929 3.37635 13.1914 -4.12708
316 2 4.44329 3.1779 13.1914 -4.12709
317 2 5.73344 5.80937 13.1914 -4.1271
318 2 2.80944 5.61093 13.1914 -4.12709
319 2 0.22914 10.477 13.1914 -4.12709
320 2 7.02359 12.91 13.1914 -4.12709
321 2 1.51929 13.1085 13.1914 -4.12709
322 2 4.44329 8.04396 13.1914 -4.12709
323 2 5.73344 10.6754 13.1914 -4.12709
324 2 2.80944 10.477 13.1914 -4.12709
361 2 5.84801 10.477 8.8281 -4.12712
362 2 7.13816 13.1085 8.8281 -4.12713
363 2 0 10.477 8.8281 -4.12713
364 2 1.63386 12.91 8.8281 -4.12713
365 2 4.21415 8.04396 8.8281 -4.12713
366 2 5.84801 5.61093 8.8281 -4.12712
367 2 7.13816 8.24241 8.8281 -4.12713
368 2 1.63386 8.04396 8.8281 -4.12711
369 2 2.92401 10.6754 8.8281 -4.12713
370 2 4.21415 3.1779 8.8281 -4.12712
371 2 5.84801 0.744873 8.8281 -4.12712
372 2 7.13816 3.37635 8.8281 -4.12712
373 2 1.63386 3.1779 8.8281 -4.12711
374 2 2.92401 5.80937 8.8281 -4.12713
375 2 2.92401 0.943306 8.8281 -4.12713
376 2 4.21415 12.91 8.8281 -4.12713
377 2 0 0.744859 8.8281 -4.12713
378 2 0 5.61092 8.8281 -4.12714
1 1 5.61888 0.980371 23.812 -3.01379
2 1 0 0.980371 23.812 -3.15377
3 1 2.80944 0.980371 23.812 -3.11235
4 1 5.61888 5.84643 23.8348 -2.93854
5 1 0 5.84643 23.8348 -2.92804
6 1 7.0236 3.41341 23.8235 -3.03828
7 1 1.40472 3.41341 23.8235 -3.33943
8 1 4.21416 3.41341 23.8235 -3.17831
9 1 2.80944 5.84643 23.8348 -3.06605
22 1 2.80417 2.44244 19.1565 -2.82909
23 1 3.13871 3.51271 21.5201 -2.35584
24 1 0.847396 2.27108 21.5217 -2.36923
25 1 4.32872 4.86606 18.5106 -4.44318
26 1 2.92401 7.2991 16.7095 -6.45031
27 1 4.32872 9.73212 18.5106 -4.10732
28 1 2.92401 12.1652 16.7095 -6.44204
29 1 2.48125 12.4228 21.5529 -4.82492
30 1 -0.0940108 11.6957 21.4157 -5.12454
31 1 2.92401 12.1652 19.0018 -6.87997
32 1 0.114574 12.1652 18.5106 -4.90041
33 1 0.114574 7.2991 18.5106 -5.65776
34 1 7.13816 9.73214 16.7095 -6.47383
35 1 0.114574 2.43304 18.5106 -3.22469
36 1 7.13816 4.86606 16.7095 -6.60941
37 1 4.32872 0 18.5106 -4.0077
38 1 2.92401 2.43304 16.7095 -6.68467
39 1 7.13816 0 16.7095 -6.61966
118 1 1.58149 8.59065 20.7615 -5.14437
119 1 2.92401 7.2991 19.0018 -5.73727
120 1 7.13816 4.86606 19.0018 -2.34074
121 1 7.13816 9.73214 19.0018 -5.46935
122 1 7.13816 0 19.0018 -2.45474
123 1 4.45412 13.9231 21.0201 -2.50054
124 1 7.40606 9.15745 21.6107 -2.15707
125 1 4.21416 8.27947 23.8462 -2.92995
126 1 7.0236 8.27947 23.8462 -3.15695
127 1 0 10.7125 23.8576 -3.19964
128 1 1.40472 8.27947 23.8462 -3.12752
129 1 5.61888 10.7125 23.8576 -3.03314
130 1 2.80944 10.7125 23.8576 -3.04938
132 1 4.21416 13.1455 23.869 -3.21488
134 1 7.0236 13.1455 23.869 -3.00877
136 1 1.40472 13.1455 23.869 -3.11489
248 2 4.32872 3.37635 17.5548 -3.31868
249 2 3.03858 5.61093 17.5548 -3.65849
250 2 5.61887 5.61093 17.5548 -3.48626
251 2 4.32872 8.24241 17.5548 -3.97675
252 2 3.03858 10.477 17.5548 -3.60446
253 2 5.61887 10.477 17.5548 -3.44241
254 2 2.45804 10.5708 20.619 -2.31539
255 2 1.29208 12.0618 19.9769 -3.7119
256 2 7.25319 11.517 19.6702 -3.20858
257 2 4.15491 12.0538 20.4313 -2.76412
258 2 1.40472 12.91 17.5548 -3.87315
259 2 7.25273 12.91 17.5548 -3.40999
260 2 0.114574 10.6754 17.5548 -3.89296
261 2 1.38317 6.8147 19.7537 -2.3732
262 2 0.114574 5.80937 17.5548 -3.37856
263 2 1.40472 8.04397 17.5548 -4.11743
264 2 7.25273 8.04397 17.5548 -3.70076
265 2 1.40472 3.1779 17.5548 -3.27917
266 2 7.25273 3.1779 17.5548 -3.24825
267 2 0.114574 0.943306 17.5548 -3.2476
268 2 4.32872 13.1085 17.5548 -3.56846
269 2 3.03858 0.744873 17.5548 -3.36187
270 2 5.61887 0.744873 17.5548 -3.3976
379 2 0.491136 8.97767 19.1277 -3.39079
380 2 2.58306 9.04167 19.2244 -3.00751
381 2 4.55848 6.56027 19.3364 -1.80574
382 2 1.37702 4.04264 20.9319 -1.07889
383 2 6.0297 4.15716 21.3693 0
384 2 8.03836 13.5161 21.2923 -1.0292
385 2 8.79204 10.0652 20.7212 -2.54675
386 2 2.77005 13.7803 19.885 -3.33669
10 1 7.0236 5.02485 26.1582 -3.43402
11 1 1.40472 5.02485 26.1582 -3.41091
12 1 5.61888 7.45787 26.1696 -3.41687
13 1 0 7.45787 26.1696 -3.40841
14 1 4.21416 5.02485 26.1582 -3.42225
15 1 2.80944 7.45787 26.1696 -3.40955
16 1 7.0236 9.89091 26.181 -3.40002
17 1 1.40472 9.89091 26.181 -3.3938
18 1 5.61888 12.3239 26.1924 -3.40177
19 1 0 12.3239 26.1924 -3.39499
20 1 4.21416 9.89091 26.181 -3.4205
21 1 2.80944 12.3239 26.1924 -3.40201
131 1 4.21416 0.158785 26.1354 -3.39801
133 1 7.0236 0.158785 26.1354 -3.40004
135 1 1.40472 0.158785 26.1354 -3.38534
137 1 5.61888 2.59181 26.1468 -3.40581
138 1 0 2.59181 26.1468 -3.40752
139 1 2.80944 2.59181 26.1468 -3.40592
140 1 5.61888 5.81468 30.8164 -3.35104
141 1 0 5.81468 30.8164 -3.35104
142 1 7.0236 8.24771 30.8277 -3.35103
143 1 1.40472 8.24771 30.8277 -3.35103
144 1 4.21416 8.24771 30.8277 -3.35103
145 1 2.80944 5.81468 30.8164 -3.35104
146 1 7.0236 1.77021 28.4702 -3.35207
147 1 1.40472 1.77021 28.4702 -3.35207
148 1 4.21416 1.77021 28.4702 -3.35207
149 1 7.0236 6.63627 28.493 -3.35105
150 1 1.40472 6.63627 28.493 -3.35104
151 1 5.61888 4.20324 28.4816 -3.35108
152 1 0 4.20324 28.4816 -3.35108
153 1 4.21416 6.63627 28.493 -3.35104
154 1 2.80944 4.20324 28.4816 -3.35108
155 1 5.61888 9.06931 28.5044 -3.35104
156 1 0 9.06931 28.5044 -3.35104
157 1 7.0236 11.5023 28.5158 -3.35223
158 1 1.40472 11.5023 28.5158 -3.35223
159 1 4.21416 11.5023 28.5158 -3.35223
160 1 2.80944 9.06931 28.5044 -3.35104
161 1 2.80944 0.94862 30.7936 -3.3559
162 1 2.80944 13.9354 28.5271 -3.34153
163 1 0 0.94862 30.7936 -3.3559
164 1 0 13.9354 28.5271 -3.34154
165 1 5.61888 0.94862 30.7936 -3.3559
166 1 5.61888 13.9354 28.5271 -3.34153
167 1 7.0236 3.38164 30.805 -3.34972
168 1 1.40472 3.38164 30.805 -3.34972
169 1 4.21416 3.38164 30.805 -3.34972
180 1 4.21416 13.1138 30.8505 -3.35589
181 1 5.61888 10.6807 30.8392 -3.34972
182 1 0 10.6807 30.8392 -3.34973
184 1 7.0236 13.1138 30.8505 -3.3559
186 1 1.40472 13.1138 30.8505 -3.35589
187 1 2.80944 10.6807 30.8392 -3.34972
170 1 5.61888 7.42612 33.1512 -3.35104
171 1 0 7.42612 33.1512 -3.35104
172 1 7.0236 9.85914 33.1626 -3.35108
173 1 1.40472 9.85914 33.1626 -3.35108
174 1 4.21416 9.85914 33.1626 -3.35108
175 1 2.80944 7.42612 33.1512 -3.35104
176 1 5.61888 12.2922 33.1739 -3.35206
177 1 0 12.2922 33.1739 -3.35206
178 1 2.80944 12.2922 33.1739 -3.35206
179 1 4.21416 0.127019 33.117 -3.34154
183 1 7.0236 0.127019 33.117 -3.34154
185 1 1.40472 0.127019 33.117 -3.34154
188 1 5.61888 2.56006 33.1284 -3.35222
189 1 0 2.56006 33.1284 -3.35222
190 1 7.0236 4.99308 33.1397 -3.35105
191 1 1.40472 4.99308 33.1397 -3.35104
192 1 4.21416 4.99308 33.1397 -3.35104
193 1 2.80944 2.56006 33.1284 -3.35222
194 1 5.61888 12.2604 40.1555 -2.97112
195 1 0 12.2604 40.1555 -2.97112
196 1 2.80944 12.2604 40.1555 -2.97111
197 1 7.0236 9.82739 40.1441 -2.97446
198 1 1.40472 9.82739 40.1441 -2.97446
199 1 4.21416 9.82739 40.1441 -2.97446
200 1 5.61888 5.78293 37.7979 -3.43976
201 1 0 5.78293 37.7979 -3.43976
202 1 7.0236 8.21595 37.8093 -3.43975
203 1 1.40472 8.21595 37.8093 -3.43975
204 1 4.21416 8.21595 37.8093 -3.43975
205 1 2.80944 5.78293 37.7979 -3.43976
206 1 4.21416 0.095268 40.0985 -2.9788
207 1 4.21416 13.082 37.8321 -3.44396
208 1 5.61888 2.52829 40.11 -2.97213
209 1 0 2.52829 40.11 -2.97213
210 1 5.61888 10.649 37.8207 -3.43844
211 1 0 10.649 37.8207 -3.43844
212 1 7.0236 0.095268 40.0985 -2.97881
213 1 7.0236 13.082 37.8321 -3.44396
214 1 1.40472 0.095268 40.0985 -2.97881
215 1 1.40472 13.082 37.8321 -3.44396
216 1 2.80944 2.52829 40.11 -2.97213
217 1 2.80944 10.649 37.8207 -3.43844
218 1 7.0236 4.96133 40.1213 -2.97443
219 1 1.40472 4.96133 40.1213 -2.97443
220 1 5.61888 7.39435 40.1327 -2.97441
221 1 0 7.39435 40.1327 -2.97442
222 1 4.21416 4.96133 40.1213 -2.97442
223 1 2.80944 7.39435 40.1327 -2.97441
224 1 5.61888 9.03756 35.4859 -3.35104
225 1 0 9.03756 35.4859 -3.35105
226 1 7.0236 11.4706 35.4973 -3.35223
227 1 1.40472 11.4706 35.4973 -3.35223
228 1 4.21416 11.4706 35.4973 -3.35223
229 1 2.80944 9.03756 35.4859 -3.35104
230 1 2.80944 0.916869 37.7751 -3.4418
231 1 2.80944 13.9036 35.5087 -3.34154
232 1 0 0.916869 37.7751 -3.44181
233 1 0 13.9036 35.5087 -3.34155
234 1 5.61888 0.916869 37.7751 -3.4418
235 1 5.61888 13.9036 35.5087 -3.34154
236 1 7.0236 3.34989 37.7865 -3.43844
237 1 1.40472 3.34989 37.7865 -3.43843
238 1 4.21416 3.34989 37.7865 -3.43843
239 1 7.0236 1.73846 35.4518 -3.35208
240 1 1.40472 1.73846 35.4518 -3.35207
241 1 4.21416 1.73846 35.4518 -3.35207
242 1 7.0236 6.60452 35.4745 -3.35104
243 1 1.40472 6.60452 35.4745 -3.35104
244 1 5.61888 4.17149 35.4632 -3.35108
245 1 0 4.17149 35.4632 -3.35108
246 1 4.21416 6.60452 35.4745 -3.35104
247 1 2.80944 4.17149 35.4632 -3.35108
