ITEM: TIMESTEP
496
ITEM: NUMBER OF ATOMS
15
ITEM: BOX BOUNDS ff ff ff
0.0000000000000000e+00 1.8000000000000000e+01
0.0000000000000000e+00 1.8000000000000000e+01
0.0000000000000000e+00 1.8000000000000000e+01
ITEM: ATOMS id type x y z c_peatom
8 2 10.3041 7.71493 8.06224 -3.75027
3 1 8.77765 11.2683 8.79556 -6.40438
14 2 9.21616 10.3862 7.11172 -3.1894
7 2 11.8966 10.2171 6.56523 -2.63201
2 1 10.7698 9.68052 7.76234 -7.43466
10 2 10.5923 11.1401 8.974 -3.31969
6 1 9.75747 5.04389 9.87142 -2.85111
13 2 7.84385 7.97882 10.9192 -3.32469
1 1 8.45272 7.92939 9.1452 -5.88399
4 1 11.1549 7.49141 9.69777 -4.44426
12 2 9.65021 6.63694 10.4569 -5.20118
15 2 8.65948 11.5245 10.721 -3.19728
5 1 8.67183 9.71188 11.2405 -5.63292
9 2 7.72231 9.79842 9.5243 -3.7117
11 2 9.89859 9.12499 9.83067 -4.02816
