ITEM: TIMESTEP
587
ITEM: NUMBER OF ATOMS
18
ITEM: BOX BOUNDS ff ff ff
0.0000000000000000e+00 1.8000000000000000e+01
0.0000000000000000e+00 1.8000000000000000e+01
0.0000000000000000e+00 1.8000000000000000e+01
ITEM: ATOMS id type x y z c_peatom
1 1 7.75752 7.66417 7.11867 -5.03639
8 2 8.60927 6.76301 8.51126 -3.91503
2 1 10.3067 6.62937 7.61585 -4.60869
9 2 9.52388 7.64953 6.25644 -4.41251
10 2 11.5019 8.17963 7.90914 -4.14434
11 2 7.58068 9.1134 8.19351 -3.26242
12 2 8.40369 11.7683 6.94357 -3.56845
3 1 10.5021 9.23878 6.74127 -4.59077
4 1 9.6722 11.8794 7.94545 -4.72009
13 2 9.73074 9.90628 8.38485 -4.18791
5 1 8.48623 8.47158 9.86932 -10.0369
15 2 7.33034 7.25602 10.3582 -2.47804
14 2 8.50525 8.41515 11.9582 -3.21699
16 2 10.5266 7.98172 10.5795 -3.7451
17 2 7.46183 9.77959 10.3916 -2.48664
6 1 11.2288 9.40322 9.53384 -5.2162
18 2 9.72807 10.1296 10.715 -3.50649
7 1 10.1545 9.01295 12.1375 -5.17488
