ITEM: TIMESTEP
105
ITEM: NUMBER OF ATOMS
18
ITEM: BOX BOUNDS ff ff ff
0.0000000000000000e+00 1.8000000000000000e+01
0.0000000000000000e+00 1.8000000000000000e+01
0.0000000000000000e+00 1.8000000000000000e+01
ITEM: ATOMS id type x y z c_peatom
1 1 7.86799 7.28848 7.36147 -6.82765
8 2 8.06949 6.05464 8.69854 -3.15826
9 2 6.22315 7.01491 7.02032 -2.79065
10 2 7.39294 8.43848 8.7483 -3.1665
2 1 10.6893 8.88828 6.32975 -3.71361
3 1 10.7648 7.94478 8.91092 -5.08553
11 2 9.459 8.84486 7.68393 -4.16753
4 1 10.2933 10.9105 8.19237 -6.49921
12 2 11.6573 9.51593 7.72406 -4.07046
13 2 11.2906 12.0487 7.40806 -2.85877
5 1 7.9759 7.32125 10.17 -7.68281
14 2 6.67075 6.44663 10.8701 -2.66426
15 2 8.85099 8.27259 11.7693 -3.78178
6 1 10.4454 7.32006 11.6655 -4.74832
16 2 9.86411 6.55197 10.0475 -3.9035
17 2 11.1167 8.80269 10.5862 -4.65503
7 1 9.69161 9.90408 10.7824 -4.72973
18 2 10.7526 11.2364 9.94497 -3.49255
