ITEM: TIMESTEP
1960
ITEM: NUMBER OF ATOMS
18
ITEM: BOX BOUNDS ff ff ff
0.0000000000000000e+00 1.8000000000000000e+01
0.0000000000000000e+00 1.8000000000000000e+01
0.0000000000000000e+00 1.8000000000000000e+01
ITEM: ATOMS id type x y z c_peatom 
2 1 8.96346 10.2055 5.43327 -5.2042 
16 2 9.0532 11.8132 5.75322 -3.29199 
14 2 7.72608 7.02214 8.2118 -2.55159 
11 2 8.21775 9.75647 7.04714 -3.67665 
12 2 9.95401 11.4978 8.30022 -4.28068 
7 1 9.75528 9.62003 8.11025 -4.98682 
13 2 7.36159 5.7147 10.345 -2.5355 
10 2 7.02352 8.19122 10.5324 -2.47002 
1 1 8.21239 7.12255 9.85085 -9.16361 
18 2 10.0097 6.24326 10.29 -3.42692 
8 2 11.5964 8.45908 10.5762 -3.83502 
5 1 11.0572 7.2798 9.31627 -4.54374 
3 1 8.46062 11.5088 9.95818 -6.09474 
9 2 8.71528 9.5224 9.72327 -4.26544 
15 2 7.45794 11.451 11.342 -2.90029 
17 2 10.1503 11.3521 10.9278 -4.48079 
4 1 11.3074 11.5502 9.50105 -3.90904 
6 1 10.0346 9.41256 11.1054 -4.79274 
