ITEM: TIMESTEP
402
ITEM: NUMBER OF ATOMS
16
ITEM: BOX BOUNDS ff ff ff
0.0000000000000000e+00 1.8000000000000000e+01
0.0000000000000000e+00 1.8000000000000000e+01
0.0000000000000000e+00 1.8000000000000000e+01
ITEM: ATOMS id type x y z c_peatom
1 1 7.1718 7.43074 8.13669 -5.28532
8 2 8.76281 6.62324 7.48407 -4.23463
9 2 7.60351 8.98066 6.98045 -4.01819
2 1 9.08284 8.05755 6.19874 -4.75492
10 2 10.1779 8.91014 7.43259 -3.75328
7 1 10.0544 7.18479 8.80148 -6.08102
3 1 8.73434 10.0636 8.23035 -5.86851
14 2 6.98044 7.13735 9.996 -3.3402
16 2 8.68948 8.55438 9.41455 -4.6686
15 2 9.52889 6.17525 10.0668 -2.91309
4 1 6.99473 9.01222 10.5326 -5.33056
5 1 8.13978 11.5494 10.6567 -4.6822
11 2 7.11995 10.5579 9.38261 -4.09385
12 2 8.25007 9.92362 11.7135 -4.38939
13 2 9.73618 10.9556 9.80921 -4.2461
6 1 9.8429 9.36706 10.8386 -4.42519
