ITEM: TIMESTEP
363
ITEM: NUMBER OF ATOMS
18
ITEM: BOX BOUNDS ff ff ff
0.0000000000000000e+00 1.8000000000000000e+01
0.0000000000000000e+00 1.8000000000000000e+01
0.0000000000000000e+00 1.8000000000000000e+01
ITEM: ATOMS id type x y z c_peatom
2 1 8.0201 7.9365 7.13978 -5.3889
14 2 8.57661 6.97492 8.62674 -3.5272
17 2 6.24229 7.57662 7.56549 -3.30679
6 1 10.7632 7.19719 8.83696 -5.83176
10 2 9.73294 8.94676 8.46001 -4.3981
11 2 11.9432 8.55077 8.02183 -3.1314
15 2 7.53354 9.49446 8.12654 -3.9181
5 1 9.2023 10.6567 7.65521 -4.45513
4 1 5.84668 8.7453 9.09568 -6.00659
7 1 8.43665 8.61986 9.97101 -7.45314
9 2 6.7129 7.54878 10.1093 -3.32271
13 2 9.69387 7.11118 10.6253 -3.77395
16 2 11.8974 8.07501 10.2648 -3.92207
3 1 10.7328 8.20283 11.6939 -4.88449
12 2 6.91898 9.82719 10.3104 -3.00515
1 1 11.3318 9.85507 9.36876 -6.16916
8 2 9.97667 9.68441 10.8482 -3.81694
18 2 10.0243 11.3538 9.04603 -3.66228
