ITEM: TIMESTEP
68
ITEM: NUMBER OF ATOMS
389
ITEM: BOX BOUNDS pp pp pp
0.0000000000000000e+00 8.4283000000000001e+00
0.0000000000000000e+00 1.4598200000000000e+01
0.0000000000000000e+00 4.9476269000000002e+01
ITEM: ATOMS id type x y z c_peatom
67 1 2.92401 12.1652 3.61953 -2.2941
68 1 7.13816 4.86606 3.61953 -2.29409
69 1 5.73344 7.2991 5.31004 -6.5982
70 1 7.13816 9.73214 3.61953 -2.29409
71 1 5.73344 12.1652 5.31004 -6.5982
72 1 7.13816 0 3.61953 -2.29408
73 1 5.73344 2.43304 5.31004 -6.5982
74 1 2.92401 7.2991 3.61953 -2.29408
75 1 1.51929 9.73212 5.31004 -6.59819
76 1 2.92401 2.43304 3.61953 -2.29408
77 1 1.51929 4.86606 5.31004 -6.5982
78 1 1.51929 0 5.31004 -6.59819
79 1 0.114574 7.2991 5.80124 -6.54405
80 1 4.32872 9.73212 5.80124 -6.54404
81 1 2.92401 7.2991 7.4917 -6.40207
82 1 0.114574 12.1652 5.80124 -6.54405
83 1 7.13816 9.73214 7.4917 -6.40206
84 1 4.32872 0 5.80124 -6.54405
85 1 2.92401 12.1652 7.4917 -6.40208
86 1 0.114574 2.43304 5.80124 -6.54404
87 1 7.13816 0 7.4917 -6.40207
88 1 4.32872 4.86606 5.80124 -6.54403
89 1 2.92401 2.43304 7.4917 -6.40207
90 1 7.13816 4.86606 7.4917 -6.40206
91 1 5.73344 12.1652 7.98285 -6.40205
94 1 5.73344 7.2991 7.98285 -6.40204
95 1 1.51929 9.73212 7.98285 -6.40204
98 1 5.73344 2.43304 7.98285 -6.40204
99 1 1.51929 4.86606 7.98285 -6.40204
101 1 1.51929 0 7.98285 -6.40204
103 1 4.32872 9.73212 3.12833 -3.27315
104 1 4.32872 4.86606 3.12833 -3.27316
105 1 0.114574 12.1652 3.12833 -3.27315
106 1 0.114574 2.43304 3.12833 -3.27315
107 1 0.114574 7.2991 3.12833 -3.27315
108 1 4.32872 0 3.12833 -3.27314
324 2 3.03858 10.477 4.46474 -3.32409
325 2 1.40472 12.91 4.46474 -3.32409
326 2 4.32872 13.1085 4.46474 -3.32408
327 2 7.25273 3.1779 4.46474 -3.32408
328 2 0.114574 5.80937 4.46474 -3.32409
329 2 5.61887 5.61093 4.46474 -3.32408
330 2 0.114574 10.6754 4.46474 -3.32409
331 2 5.61887 10.477 4.46474 -3.32408
332 2 7.25273 8.04396 4.46474 -3.32409
333 2 0.114574 0.943306 4.46474 -3.32409
334 2 5.61887 0.744873 4.46474 -3.32408
335 2 7.25273 12.91 4.46474 -3.32408
336 2 1.40472 8.04396 4.46474 -3.32407
337 2 4.32872 8.24241 4.46474 -3.32408
338 2 3.03858 5.61092 4.46474 -3.32409
339 2 1.40472 3.1779 4.46474 -3.32408
340 2 4.32872 3.37635 4.46474 -3.32409
341 2 3.03858 0.744859 4.46474 -3.32408
342 2 0.22914 8.98727 6.64644 -4.12705
343 2 7.02359 6.55424 6.64644 -4.12705
344 2 1.51929 6.35579 6.64644 -4.12705
345 2 5.73344 8.78883 6.64644 -4.12705
346 2 2.80944 8.98727 6.64644 -4.12704
347 2 4.44329 11.4203 6.64644 -4.12706
348 2 0.22914 13.8533 6.64644 -4.12706
349 2 7.02359 11.4203 6.64644 -4.12704
350 2 1.51929 11.2219 6.64644 -4.12706
351 2 4.44329 1.68816 6.64644 -4.12706
352 2 5.73344 13.6549 6.64644 -4.12705
353 2 2.80944 13.8533 6.64644 -4.12705
354 2 0.22914 4.1212 6.64644 -4.12705
355 2 1.51929 1.48973 6.64644 -4.12705
356 2 7.02359 1.68816 6.64644 -4.12705
357 2 2.80944 4.1212 6.64644 -4.12704
358 2 5.73344 3.92275 6.64644 -4.12704
359 2 4.44329 6.55424 6.64644 -4.12706
31 1 5.73344 2.43304 14.5279 -6.3986
32 1 4.32872 4.86606 16.2184 -6.36966
33 1 5.73344 12.1652 14.5279 -6.40116
34 1 5.73344 7.2991 14.5279 -6.4011
35 1 4.32872 9.73212 16.2184 -6.35784
36 1 1.51928 4.86606 14.5279 -6.39871
37 1 0.114574 2.43304 16.2184 -6.31205
38 1 1.51928 0 14.5279 -6.39734
39 1 0.114574 12.1652 16.2184 -6.34213
40 1 1.51928 9.73212 14.5279 -6.39883
41 1 0.114574 7.2991 16.2184 -6.32577
42 1 4.32872 0 16.2184 -6.26784
43 1 2.92401 12.1652 10.1646 -6.40196
44 1 2.92401 7.2991 10.1646 -6.40195
45 1 1.51929 9.73212 11.855 -6.4021
46 1 7.13816 4.86606 10.1646 -6.40194
47 1 5.73344 2.43304 11.855 -6.40212
48 1 7.13816 0 10.1646 -6.40195
49 1 5.73344 12.1652 11.855 -6.40212
50 1 7.13816 9.73214 10.1646 -6.40194
51 1 5.73344 7.2991 11.855 -6.40212
52 1 2.92401 2.43304 10.1646 -6.40195
53 1 1.51929 0 11.855 -6.40212
54 1 1.51929 4.86606 11.855 -6.4021
55 1 4.32872 0 12.3462 -6.40196
56 1 2.92401 2.43304 14.0367 -6.38443
57 1 7.13816 0 14.0367 -6.38108
58 1 0.114574 7.2991 12.3462 -6.40197
59 1 0.114574 2.43304 12.3462 -6.40196
60 1 7.13816 4.86606 14.0367 -6.38415
61 1 4.32872 4.86606 12.3462 -6.40196
62 1 2.92401 7.2991 14.0367 -6.38109
63 1 0.114574 12.1652 12.3462 -6.40197
64 1 4.32872 9.73212 12.3462 -6.40196
65 1 7.13816 9.73214 14.0367 -6.38415
66 1 2.92401 12.1652 14.0367 -6.37955
92 1 0.114574 12.1652 9.67335 -6.40208
93 1 4.32872 9.73212 9.67335 -6.40207
96 1 0.114574 7.2991 9.67335 -6.40207
97 1 4.32872 4.86606 9.67335 -6.40207
100 1 0.114574 2.43304 9.67335 -6.40207
102 1 4.32872 0 9.67335 -6.40207
270 2 5.84801 4.1212 15.3731 -4.12743
271 2 7.13816 1.48973 15.3731 -4.12743
272 2 4.21415 1.68818 15.3731 -4.12709
273 2 5.84801 13.8533 15.3731 -4.12721
274 2 7.13816 11.2219 15.3731 -4.12743
275 2 4.21415 11.4203 15.3731 -4.12725
276 2 5.84801 8.98727 15.3731 -4.12743
277 2 7.13816 6.35579 15.3731 -4.12744
278 2 4.21415 6.55424 15.3731 -4.12732
279 2 0 4.1212 15.3731 -4.12742
280 2 2.92401 3.92275 15.3731 -4.1273
281 2 1.63386 6.55424 15.3731 -4.12731
282 2 1.63386 1.68816 15.3731 -4.12729
283 2 0 13.8533 15.3731 -4.12744
284 2 2.92401 13.6549 15.3731 -4.12703
285 2 0 8.98727 15.3731 -4.12744
286 2 2.92401 8.78882 15.3731 -4.12732
287 2 1.63386 11.4203 15.3731 -4.12724
288 2 3.03858 13.8533 11.0098 -4.12708
289 2 1.40472 11.4203 11.0098 -4.12708
290 2 4.32872 11.2219 11.0098 -4.12709
291 2 3.03858 8.98727 11.0098 -4.12707
292 2 1.40472 6.55424 11.0098 -4.12709
293 2 4.32872 6.35579 11.0098 -4.12709
294 2 5.61887 4.1212 11.0098 -4.12707
295 2 0.114574 3.92275 11.0098 -4.12708
296 2 7.25273 6.55424 11.0098 -4.12709
297 2 0.114574 13.6549 11.0098 -4.12709
298 2 5.61887 13.8533 11.0098 -4.12707
299 2 7.25273 1.68818 11.0098 -4.12709
300 2 7.25273 11.4203 11.0098 -4.12707
301 2 5.61887 8.98727 11.0098 -4.12708
302 2 0.114574 8.78882 11.0098 -4.12709
303 2 3.03858 4.1212 11.0098 -4.12707
304 2 4.32872 1.48973 11.0098 -4.12708
305 2 1.40472 1.68816 11.0098 -4.12708
306 2 5.73344 0.943306 13.1914 -4.12709
307 2 2.80944 0.744873 13.1914 -4.12708
308 2 4.44329 12.91 13.1914 -4.1271
309 2 0.22914 5.61093 13.1914 -4.12709
310 2 7.02359 8.04396 13.1914 -4.12709
311 2 1.51929 8.24241 13.1914 -4.12708
312 2 0.22914 0.744873 13.1914 -4.12709
313 2 7.02359 3.1779 13.1914 -4.12708
314 2 1.51929 3.37635 13.1914 -4.12708
315 2 4.44329 3.1779 13.1914 -4.12709
316 2 5.73344 5.80937 13.1914 -4.1271
317 2 2.80944 5.61093 13.1914 -4.12709
318 2 0.22914 10.477 13.1914 -4.12709
319 2 7.02359 12.91 13.1914 -4.12709
320 2 1.51929 13.1085 13.1914 -4.12709
321 2 4.44329 8.04396 13.1914 -4.12709
322 2 5.73344 10.6754 13.1914 -4.12709
323 2 2.80944 10.477 13.1914 -4.12709
360 2 5.84801 10.477 8.8281 -4.12712
361 2 7.13816 13.1085 8.8281 -4.12713
362 2 0 10.477 8.8281 -4.12713
363 2 1.63386 12.91 8.8281 -4.12713
364 2 4.21415 8.04396 8.8281 -4.12713
365 2 5.84801 5.61093 8.8281 -4.12712
366 2 7.13816 8.24241 8.8281 -4.12713
367 2 1.63386 8.04396 8.8281 -4.12711
368 2 2.92401 10.6754 8.8281 -4.12713
369 2 4.21415 3.1779 8.8281 -4.12712
370 2 5.84801 0.744873 8.8281 -4.12712
371 2 7.13816 3.37635 8.8281 -4.12712
372 2 1.63386 3.1779 8.8281 -4.12711
373 2 2.92401 5.80937 8.8281 -4.12713
374 2 2.92401 0.943306 8.8281 -4.12713
375 2 4.21415 12.91 8.8281 -4.12713
376 2 0 0.744859 8.8281 -4.12713
377 2 0 5.61092 8.8281 -4.12714
1 1 5.61888 0.980371 23.812 -3.03003
2 1 0 0.980371 23.812 -2.9746
3 1 2.80944 0.980371 23.812 -2.99732
4 1 5.61888 10.7125 23.8576 -3.12874
5 1 0 10.7125 23.8576 -3.26245
6 1 7.0236 8.27947 23.8462 -3.02356
7 1 1.40472 8.27947 23.8462 -3.08786
8 1 4.21416 8.27947 23.8462 -2.94944
9 1 2.80944 10.7125 23.8576 -3.09169
11 1 4.21416 13.1455 23.869 -2.9555
12 1 7.0236 3.41341 23.8235 -3.12801
13 1 1.40472 3.41341 23.8235 -3.05453
14 1 5.61888 5.84643 23.8348 -3.13039
15 1 0 5.84643 23.8348 -3.10839
16 1 4.32872 4.86606 18.5106 -4.30225
17 1 2.92401 7.2991 16.7095 -6.50611
18 1 4.32872 9.73212 18.5106 -4.25742
19 1 2.92401 12.1652 16.7095 -6.42056
20 1 0.114574 12.1652 18.5106 -4.28534
21 1 0.114574 7.2991 18.5106 -5.24364
22 1 7.13816 9.73214 16.7095 -6.4816
23 1 0.114574 2.43304 18.5106 -6.29782
24 1 6.61865 4.70809 21.4874 -3.32051
25 1 7.13816 4.86606 19.0018 -5.42378
26 1 7.13816 4.86606 16.7095 -6.45457
27 1 4.32872 0 18.5106 -2.74174
28 1 2.92401 2.43304 16.7095 -6.33827
29 1 7.13816 0 16.7095 -6.57545
30 1 0.278575 7.85935 21.0824 -3.10998
109 1 2.92401 2.43304 19.0018 -5.86776
110 1 2.92401 12.1652 19.0018 -4.39229
111 1 1.65796 11.4781 21.2396 -3.59052
112 1 2.53422 14.2564 18.826 -3.86698
113 1 4.38854 2.68578 21.2014 -3.41995
114 1 7.13816 9.73214 19.0018 -5.08509
115 1 2.92401 7.2991 19.0018 -3.74292
116 1 7.13816 0 19.0018 -2.27162
117 1 7.3994 11.3095 21.453 -2.18557
118 1 1.40472 13.1455 23.869 -3.06113
119 1 4.21416 3.41341 23.8235 -3.14434
122 1 7.0236 13.1455 23.869 -3.13256
126 1 2.80944 5.84643 23.8348 -2.93898
247 1 2.16916 9.32021 19.4936 -3.83759
248 1 0.633868 2.97101 20.985 -5.9601
249 2 4.32872 3.37635 17.5548 -3.32032
250 2 3.03858 5.61093 17.5548 -3.65005
251 2 5.61887 5.61093 17.5548 -3.36058
252 2 4.32872 8.24241 17.5548 -3.73548
253 2 3.03858 10.477 17.5548 -3.85212
254 2 5.61887 10.477 17.5548 -3.65506
255 2 1.40472 12.91 17.5548 -4.31487
256 2 7.25273 12.91 17.5548 -3.37591
257 2 0.114574 10.6754 17.5548 -3.68968
258 2 0.114574 5.80937 17.5548 -3.80017
259 2 1.40472 8.04397 17.5548 -3.71649
260 2 7.25273 8.04397 17.5548 -3.91581
261 2 7.40441 6.47518 20.0126 -2.43074
262 2 0.635023 4.14948 19.3889 -3.80579
263 2 7.27834 3.12437 20.0929 -2.54919
264 2 1.40472 3.1779 17.5548 -3.68291
265 2 7.25273 3.1779 17.5548 -4.28539
266 2 0.114574 0.943306 17.5548 -3.38753
267 2 4.32872 13.1085 17.5548 -3.4765
268 2 3.03858 0.744873 17.5548 -4.85947
269 2 5.61887 0.744873 17.5548 -3.21521
378 2 1.35491 1.45458 19.7238 -3.79548
379 2 3.96735 1.23116 19.9009 -3.17027
380 2 1.36895 11.0672 19.382 -3.97373
381 2 4.55709 6.54444 19.3354 -2.10004
382 2 5.97084 1.65235 21.2145 -0.986735
383 2 8.64727 8.89044 19.4956 -3.70497
384 2 1.41611 9.47263 21.3991 -2.16381
385 2 8.55976 4.71389 21.4061 -2.19295
386 2 1.91537 13.2628 20.3391 -2.30713
387 2 6.72299 13.0708 21.1879 -0.652885
388 2 5.72004 8.61351 19.3782 -1.99382
389 2 2.57018 3.49055 20.709 -2.31413
10 1 4.21416 0.158785 26.1354 -3.42744
120 1 1.40472 0.158785 26.1354 -3.4087
121 1 7.0236 0.158785 26.1354 -3.40274
123 1 5.61888 2.59181 26.1468 -3.40955
124 1 0 2.59181 26.1468 -3.41771
125 1 2.80944 2.59181 26.1468 -3.41397
127 1 7.0236 5.02485 26.1582 -3.40991
128 1 1.40472 5.02485 26.1582 -3.41262
129 1 5.61888 7.45787 26.1696 -3.41411
130 1 0 7.45787 26.1696 -3.42296
131 1 4.21416 5.02485 26.1582 -3.41093
132 1 2.80944 7.45787 26.1696 -3.42758
133 1 7.0236 9.89091 26.181 -3.40564
134 1 1.40472 9.89091 26.181 -3.40057
135 1 5.61888 12.3239 26.1924 -3.43056
136 1 0 12.3239 26.1924 -3.41714
137 1 4.21416 9.89091 26.181 -3.41242
138 1 2.80944 12.3239 26.1924 -3.43005
139 1 5.61888 5.81468 30.8164 -3.35104
140 1 0 5.81468 30.8164 -3.35104
141 1 7.0236 8.24771 30.8277 -3.35103
142 1 1.40472 8.24771 30.8277 -3.35103
143 1 4.21416 8.24771 30.8277 -3.35103
144 1 2.80944 5.81468 30.8164 -3.35104
145 1 7.0236 1.77021 28.4702 -3.35207
146 1 1.40472 1.77021 28.4702 -3.35207
147 1 4.21416 1.77021 28.4702 -3.35207
148 1 7.0236 6.63627 28.493 -3.35105
149 1 1.40472 6.63627 28.493 -3.35104
150 1 5.61888 4.20324 28.4816 -3.35108
151 1 0 4.20324 28.4816 -3.35108
152 1 4.21416 6.63627 28.493 -3.35104
153 1 2.80944 4.20324 28.4816 -3.35108
154 1 5.61888 9.06931 28.5044 -3.35104
155 1 0 9.06931 28.5044 -3.35104
156 1 7.0236 11.5023 28.5158 -3.35223
157 1 1.40472 11.5023 28.5158 -3.35223
158 1 4.21416 11.5023 28.5158 -3.35223
159 1 2.80944 9.06931 28.5044 -3.35104
160 1 2.80944 0.94862 30.7936 -3.3559
161 1 2.80944 13.9354 28.5271 -3.34153
162 1 0 0.94862 30.7936 -3.3559
163 1 0 13.9354 28.5271 -3.34154
164 1 5.61888 0.94862 30.7936 -3.3559
165 1 5.61888 13.9354 28.5271 -3.34153
166 1 7.0236 3.38164 30.805 -3.34972
167 1 1.40472 3.38164 30.805 -3.34972
168 1 4.21416 3.38164 30.805 -3.34972
179 1 4.21416 13.1138 30.8505 -3.35589
180 1 5.61888 10.6807 30.8392 -3.34972
181 1 0 10.6807 30.8392 -3.34973
183 1 7.0236 13.1138 30.8505 -3.3559
185 1 1.40472 13.1138 30.8505 -3.35589
186 1 2.80944 10.6807 30.8392 -3.34972
169 1 5.61888 7.42612 33.1512 -3.35104
170 1 0 7.42612 33.1512 -3.35104
171 1 7.0236 9.85914 33.1626 -3.35108
172 1 1.40472 9.85914 33.1626 -3.35108
173 1 4.21416 9.85914 33.1626 -3.35108
174 1 2.80944 7.42612 33.1512 -3.35104
175 1 5.61888 12.2922 33.1739 -3.35206
176 1 0 12.2922 33.1739 -3.35206
177 1 2.80944 12.2922 33.1739 -3.35206
178 1 4.21416 0.127019 33.117 -3.34154
182 1 7.0236 0.127019 33.117 -3.34154
184 1 1.40472 0.127019 33.117 -3.34154
187 1 5.61888 2.56006 33.1284 -3.35222
188 1 0 2.56006 33.1284 -3.35222
189 1 7.0236 4.99308 33.1397 -3.35105
190 1 1.40472 4.99308 33.1397 -3.35104
191 1 4.21416 4.99308 33.1397 -3.35104
192 1 2.80944 2.56006 33.1284 -3.35222
193 1 5.61888 12.2604 40.1555 -2.97112
194 1 0 12.2604 40.1555 -2.97112
195 1 2.80944 12.2604 40.1555 -2.97111
196 1 7.0236 9.82739 40.1441 -2.97446
197 1 1.40472 9.82739 40.1441 -2.97446
198 1 4.21416 9.82739 40.1441 -2.97446
199 1 5.61888 5.78293 37.7979 -3.43976
200 1 0 5.78293 37.7979 -3.43976
201 1 7.0236 8.21595 37.8093 -3.43975
202 1 1.40472 8.21595 37.8093 -3.43975
203 1 4.21416 8.21595 37.8093 -3.43975
204 1 2.80944 5.78293 37.7979 -3.43976
205 1 4.21416 0.095268 40.0985 -2.9788
206 1 4.21416 13.082 37.8321 -3.44396
207 1 5.61888 2.52829 40.11 -2.97213
208 1 0 2.52829 40.11 -2.97213
209 1 5.61888 10.649 37.8207 -3.43844
210 1 0 10.649 37.8207 -3.43844
211 1 7.0236 0.095268 40.0985 -2.97881
212 1 7.0236 13.082 37.8321 -3.44396
213 1 1.40472 0.095268 40.0985 -2.97881
214 1 1.40472 13.082 37.8321 -3.44396
215 1 2.80944 2.52829 40.11 -2.97213
216 1 2.80944 10.649 37.8207 -3.43844
217 1 7.0236 4.96133 40.1213 -2.97443
218 1 1.40472 4.96133 40.1213 -2.97443
219 1 5.61888 7.39435 40.1327 -2.97441
220 1 0 7.39435 40.1327 -2.97442
221 1 4.21416 4.96133 40.1213 -2.97442
222 1 2.80944 7.39435 40.1327 -2.97441
223 1 5.61888 9.03756 35.4859 -3.35104
224 1 0 9.03756 35.4859 -3.35105
225 1 7.0236 11.4706 35.4973 -3.35223
226 1 1.40472 11.4706 35.4973 -3.35223
227 1 4.21416 11.4706 35.4973 -3.35223
228 1 2.80944 9.03756 35.4859 -3.35104
229 1 2.80944 0.916869 37.7751 -3.4418
230 1 2.80944 13.9036 35.5087 -3.34154
231 1 0 0.916869 37.7751 -3.44181
232 1 0 13.9036 35.5087 -3.34155
233 1 5.61888 0.916869 37.7751 -3.4418
234 1 5.61888 13.9036 35.5087 -3.34154
235 1 7.0236 3.34989 37.7865 -3.43844
236 1 1.40472 3.34989 37.7865 -3.43843
237 1 4.21416 3.34989 37.7865 -3.43843
238 1 7.0236 1.73846 35.4518 -3.35208
239 1 1.40472 1.73846 35.4518 -3.35207
240 1 4.21416 1.73846 35.4518 -3.35207
241 1 7.0236 6.60452 35.4745 -3.35104
242 1 1.40472 6.60452 35.4745 -3.35104
243 1 5.61888 4.17149 35.4632 -3.35108
244 1 0 4.17149 35.4632 -3.35108
245 1 4.21416 6.60452 35.4745 -3.35104
246 1 2.80944 4.17149 35.4632 -3.35108
