ITEM: TIMESTEP
39
ITEM: NUMBER OF ATOMS
381
ITEM: BOX BOUNDS pp pp pp
0.0000000000000000e+00 8.4283000000000001e+00
0.0000000000000000e+00 1.4598200000000000e+01
0.0000000000000000e+00 4.9476269000000002e+01
ITEM: ATOMS id type x y z c_peatom
69 1 2.92401 12.1652 3.61953 -2.2941
70 1 7.13816 4.86606 3.61953 -2.29409
71 1 5.73344 7.2991 5.31004 -6.5982
72 1 7.13816 9.73214 3.61953 -2.29409
73 1 5.73344 12.1652 5.31004 -6.5982
74 1 7.13816 0 3.61953 -2.29408
75 1 5.73344 2.43304 5.31004 -6.5982
76 1 2.92401 7.2991 3.61953 -2.29408
77 1 1.51929 9.73212 5.31004 -6.59819
78 1 2.92401 2.43304 3.61953 -2.29408
79 1 1.51929 4.86606 5.31004 -6.5982
80 1 1.51929 0 5.31004 -6.59819
81 1 0.114574 7.2991 5.80124 -6.54405
82 1 4.32872 9.73212 5.80124 -6.54404
83 1 2.92401 7.2991 7.4917 -6.40207
84 1 0.114574 12.1652 5.80124 -6.54405
85 1 7.13816 9.73214 7.4917 -6.40206
86 1 4.32872 0 5.80124 -6.54405
87 1 2.92401 12.1652 7.4917 -6.40208
88 1 0.114574 2.43304 5.80124 -6.54404
89 1 7.13816 0 7.4917 -6.40207
90 1 4.32872 4.86606 5.80124 -6.54403
91 1 2.92401 2.43304 7.4917 -6.40207
92 1 7.13816 4.86606 7.4917 -6.40206
93 1 5.73344 12.1652 7.98285 -6.40205
96 1 5.73344 7.2991 7.98285 -6.40204
97 1 1.51929 9.73212 7.98285 -6.40204
100 1 5.73344 2.43304 7.98285 -6.40204
101 1 1.51929 4.86606 7.98285 -6.40204
103 1 1.51929 0 7.98285 -6.40204
105 1 4.32872 9.73212 3.12833 -3.27315
106 1 4.32872 4.86606 3.12833 -3.27316
107 1 0.114574 12.1652 3.12833 -3.27315
108 1 0.114574 2.43304 3.12833 -3.27315
109 1 0.114574 7.2991 3.12833 -3.27315
110 1 4.32872 0 3.12833 -3.27314
324 2 3.03858 10.477 4.46474 -3.32409
325 2 1.40472 12.91 4.46474 -3.32409
326 2 4.32872 13.1085 4.46474 -3.32408
327 2 7.25273 3.1779 4.46474 -3.32408
328 2 0.114574 5.80937 4.46474 -3.32409
329 2 5.61887 5.61093 4.46474 -3.32408
330 2 0.114574 10.6754 4.46474 -3.32409
331 2 5.61887 10.477 4.46474 -3.32408
332 2 7.25273 8.04396 4.46474 -3.32409
333 2 0.114574 0.943306 4.46474 -3.32409
334 2 5.61887 0.744873 4.46474 -3.32408
335 2 7.25273 12.91 4.46474 -3.32408
336 2 1.40472 8.04396 4.46474 -3.32407
337 2 4.32872 8.24241 4.46474 -3.32408
338 2 3.03858 5.61092 4.46474 -3.32409
339 2 1.40472 3.1779 4.46474 -3.32408
340 2 4.32872 3.37635 4.46474 -3.32409
341 2 3.03858 0.744859 4.46474 -3.32408
342 2 0.22914 8.98727 6.64644 -4.12705
343 2 7.02359 6.55424 6.64644 -4.12705
344 2 1.51929 6.35579 6.64644 -4.12705
345 2 5.73344 8.78883 6.64644 -4.12705
346 2 2.80944 8.98727 6.64644 -4.12704
347 2 4.44329 11.4203 6.64644 -4.12706
348 2 0.22914 13.8533 6.64644 -4.12706
349 2 7.02359 11.4203 6.64644 -4.12704
350 2 1.51929 11.2219 6.64644 -4.12706
351 2 4.44329 1.68816 6.64644 -4.12706
352 2 5.73344 13.6549 6.64644 -4.12705
353 2 2.80944 13.8533 6.64644 -4.12705
354 2 0.22914 4.1212 6.64644 -4.12705
355 2 1.51929 1.48973 6.64644 -4.12705
356 2 7.02359 1.68816 6.64644 -4.12705
357 2 2.80944 4.1212 6.64644 -4.12704
358 2 5.73344 3.92275 6.64644 -4.12704
359 2 4.44329 6.55424 6.64644 -4.12706
33 1 5.73344 2.43304 14.5279 -6.40125
34 1 4.32872 4.86606 16.2184 -6.27067
35 1 5.73344 12.1652 14.5279 -6.40126
36 1 5.73344 7.2991 14.5279 -6.40126
37 1 4.32872 9.73212 16.2184 -6.37364
38 1 1.51928 4.86606 14.5279 -6.40124
39 1 0.114574 2.43304 16.2184 -6.367
40 1 1.51928 0 14.5279 -6.40125
41 1 0.114574 12.1652 16.2184 -6.40126
42 1 1.51928 9.73212 14.5279 -6.40124
43 1 0.114574 7.2991 16.2184 -6.40364
44 1 4.32872 0 16.2184 -6.41112
45 1 2.92401 12.1652 10.1646 -6.40196
46 1 2.92401 7.2991 10.1646 -6.40195
47 1 1.51929 9.73212 11.855 -6.4021
48 1 7.13816 4.86606 10.1646 -6.40194
49 1 5.73344 2.43304 11.855 -6.40212
50 1 7.13816 0 10.1646 -6.40195
51 1 5.73344 12.1652 11.855 -6.40212
52 1 7.13816 9.73214 10.1646 -6.40194
53 1 5.73344 7.2991 11.855 -6.40212
54 1 2.92401 2.43304 10.1646 -6.40195
55 1 1.51929 0 11.855 -6.40212
56 1 1.51929 4.86606 11.855 -6.4021
57 1 4.32872 0 12.3462 -6.40196
58 1 2.92401 2.43304 14.0367 -6.38416
59 1 7.13816 0 14.0367 -6.38415
60 1 0.114574 7.2991 12.3462 -6.40197
61 1 0.114574 2.43304 12.3462 -6.40196
62 1 7.13816 4.86606 14.0367 -6.38415
63 1 4.32872 4.86606 12.3462 -6.40196
64 1 2.92401 7.2991 14.0367 -6.38417
65 1 0.114574 12.1652 12.3462 -6.40197
66 1 4.32872 9.73212 12.3462 -6.40196
67 1 7.13816 9.73214 14.0367 -6.38415
68 1 2.92401 12.1652 14.0367 -6.38418
94 1 0.114574 12.1652 9.67335 -6.40208
95 1 4.32872 9.73212 9.67335 -6.40207
98 1 0.114574 7.2991 9.67335 -6.40207
99 1 4.32872 4.86606 9.67335 -6.40207
102 1 0.114574 2.43304 9.67335 -6.40207
104 1 4.32872 0 9.67335 -6.40207
270 2 5.84801 4.1212 15.3731 -4.12743
271 2 7.13816 1.48973 15.3731 -4.12743
272 2 4.21415 1.68818 15.3731 -4.12744
273 2 5.84801 13.8533 15.3731 -4.12743
274 2 7.13816 11.2219 15.3731 -4.12743
275 2 4.21415 11.4203 15.3731 -4.12745
276 2 5.84801 8.98727 15.3731 -4.12743
277 2 7.13816 6.35579 15.3731 -4.12744
278 2 4.21415 6.55424 15.3731 -4.12745
279 2 0 4.1212 15.3731 -4.12742
280 2 2.92401 3.92275 15.3731 -4.12744
281 2 1.63386 6.55424 15.3731 -4.12744
282 2 1.63386 1.68816 15.3731 -4.12743
283 2 0 13.8533 15.3731 -4.12744
284 2 2.92401 13.6549 15.3731 -4.12745
285 2 0 8.98727 15.3731 -4.12744
286 2 2.92401 8.78882 15.3731 -4.12744
287 2 1.63386 11.4203 15.3731 -4.12744
288 2 3.03858 13.8533 11.0098 -4.12708
289 2 1.40472 11.4203 11.0098 -4.12708
290 2 4.32872 11.2219 11.0098 -4.12709
291 2 3.03858 8.98727 11.0098 -4.12707
292 2 1.40472 6.55424 11.0098 -4.12709
293 2 4.32872 6.35579 11.0098 -4.12709
294 2 5.61887 4.1212 11.0098 -4.12707
295 2 0.114574 3.92275 11.0098 -4.12708
296 2 7.25273 6.55424 11.0098 -4.12709
297 2 0.114574 13.6549 11.0098 -4.12709
298 2 5.61887 13.8533 11.0098 -4.12707
299 2 7.25273 1.68818 11.0098 -4.12709
300 2 7.25273 11.4203 11.0098 -4.12707
301 2 5.61887 8.98727 11.0098 -4.12708
302 2 0.114574 8.78882 11.0098 -4.12709
303 2 3.03858 4.1212 11.0098 -4.12707
304 2 4.32872 1.48973 11.0098 -4.12708
305 2 1.40472 1.68816 11.0098 -4.12708
306 2 5.73344 0.943306 13.1914 -4.12709
307 2 2.80944 0.744873 13.1914 -4.12708
308 2 4.44329 12.91 13.1914 -4.1271
309 2 0.22914 5.61093 13.1914 -4.12709
310 2 7.02359 8.04396 13.1914 -4.12709
311 2 1.51929 8.24241 13.1914 -4.12708
312 2 0.22914 0.744873 13.1914 -4.12709
313 2 7.02359 3.1779 13.1914 -4.12708
314 2 1.51929 3.37635 13.1914 -4.12708
315 2 4.44329 3.1779 13.1914 -4.12709
316 2 5.73344 5.80937 13.1914 -4.1271
317 2 2.80944 5.61093 13.1914 -4.12709
318 2 0.22914 10.477 13.1914 -4.12709
319 2 7.02359 12.91 13.1914 -4.12709
320 2 1.51929 13.1085 13.1914 -4.12709
321 2 4.44329 8.04396 13.1914 -4.12709
322 2 5.73344 10.6754 13.1914 -4.12709
323 2 2.80944 10.477 13.1914 -4.12709
360 2 5.84801 10.477 8.8281 -4.12712
361 2 7.13816 13.1085 8.8281 -4.12713
362 2 0 10.477 8.8281 -4.12713
363 2 1.63386 12.91 8.8281 -4.12713
364 2 4.21415 8.04396 8.8281 -4.12713
365 2 5.84801 5.61093 8.8281 -4.12712
366 2 7.13816 8.24241 8.8281 -4.12713
367 2 1.63386 8.04396 8.8281 -4.12711
368 2 2.92401 10.6754 8.8281 -4.12713
369 2 4.21415 3.1779 8.8281 -4.12712
370 2 5.84801 0.744873 8.8281 -4.12712
371 2 7.13816 3.37635 8.8281 -4.12712
372 2 1.63386 3.1779 8.8281 -4.12711
373 2 2.92401 5.80937 8.8281 -4.12713
374 2 2.92401 0.943306 8.8281 -4.12713
375 2 4.21415 12.91 8.8281 -4.12713
376 2 0 0.744859 8.8281 -4.12713
377 2 0 5.61092 8.8281 -4.12714
13 1 5.61888 0.980371 23.812 -3.20284
14 1 0 0.980371 23.812 -2.97245
15 1 7.0236 8.27947 23.8462 -3.19138
16 1 1.40472 8.27947 23.8462 -3.08568
17 1 2.10617 10.3176 20.5659 -1.66901
18 1 8.16211 11.8513 21.3226 -3.03075
19 1 7.13816 4.86606 19.0018 -3.45078
20 1 4.32872 4.86606 18.5106 -7.58744
21 1 2.92401 7.2991 16.7095 -6.50558
22 1 4.32872 9.73212 18.5106 -4.4916
23 1 2.92401 12.1652 16.7095 -6.62075
24 1 0.114574 12.1652 18.5106 -3.25047
25 1 0.114574 7.2991 18.5106 -3.18724
26 1 7.13816 9.73214 16.7095 -6.6304
27 1 1.70923 2.67742 21.218 -2.26434
28 1 0.114574 2.43304 18.5106 -4.33249
29 1 7.13816 4.86606 16.7095 -6.53603
30 1 4.32872 0 18.5106 -3.03731
31 1 2.92401 2.43304 16.7095 -6.42697
32 1 7.13816 0 16.7095 -6.59464
111 1 2.92401 2.43304 19.0018 -6.00284
112 1 4.09475 4.22798 21.1271 -4.50462
113 1 2.92401 7.2991 19.0018 -4.50922
114 1 5.6639 6.20863 20.9423 -2.62169
115 1 2.92401 12.1652 19.0018 -2.69213
116 1 7.13816 9.73214 19.0018 -2.67605
117 1 7.13816 0 19.0018 -2.59838
118 1 7.92423 7.33914 21.2195 -1.89524
119 1 3.98991 1.4022 21.5983 -2.07098
120 1 5.61888 10.7125 23.8576 -2.94568
121 1 2.80944 0.980371 23.812 -3.31998
122 1 1.40472 3.41341 23.8235 -3.15344
123 1 7.0236 3.41341 23.8235 -2.92529
124 1 0 10.7125 23.8576 -3.1513
125 1 5.61888 5.84643 23.8348 -3.15337
126 1 0 5.84643 23.8348 -3.16168
127 1 4.21416 8.27947 23.8462 -2.95196
128 1 4.21416 3.41341 23.8235 -3.25241
129 1 2.80944 5.84643 23.8348 -2.99974
130 1 2.80944 10.7125 23.8576 -3.10072
132 1 4.21416 13.1455 23.869 -2.94744
134 1 7.0236 13.1455 23.869 -3.10577
136 1 1.40472 13.1455 23.869 -3.05244
248 2 2.79785 9.05875 19.3543 -2.27354
249 2 6.30455 11.4844 21.1881 -0.906942
250 2 5.62224 4.55647 19.9123 -3.26255
251 2 4.32872 3.37635 17.5548 -4.11407
252 2 3.03858 5.61093 17.5548 -3.75267
253 2 5.61887 5.61093 17.5548 -3.69303
254 2 4.32872 8.24241 17.5548 -3.74432
255 2 3.03858 10.477 17.5548 -3.47775
256 2 5.61887 10.477 17.5548 -3.38927
257 2 1.40472 12.91 17.5548 -3.24432
258 2 7.25273 12.91 17.5548 -3.384
259 2 0.114574 10.6754 17.5548 -3.24538
260 2 0.114574 5.80937 17.5548 -3.30945
261 2 1.40472 8.04397 17.5548 -3.55616
262 2 7.25273 8.04397 17.5548 -3.24796
263 2 1.41377 1.6077 19.4759 -2.40304
264 2 1.40472 3.1779 17.5548 -3.73398
265 2 7.25273 3.1779 17.5548 -3.3832
266 2 0.114574 0.943306 17.5548 -3.32923
267 2 4.32872 13.1085 17.5548 -3.24809
268 2 3.03858 0.744873 17.5548 -3.40607
269 2 5.61887 0.744873 17.5548 -3.13067
378 2 4.53773 3.05439 19.5677 -2.22403
379 2 2.70367 4.19812 19.6628 -3.74924
380 2 4.20963 6.22207 19.7475 -3.14223
381 2 7.18386 13.3297 20.4924 -1.22042
1 1 7.0236 5.02485 26.1582 -3.41502
2 1 1.40472 5.02485 26.1582 -3.40567
3 1 5.61888 7.45787 26.1696 -3.41222
4 1 0 7.45787 26.1696 -3.42903
5 1 4.21416 5.02485 26.1582 -3.40378
6 1 2.80944 7.45787 26.1696 -3.42251
7 1 7.0236 9.89091 26.181 -3.41276
8 1 1.40472 9.89091 26.181 -3.4131
9 1 5.61888 12.3239 26.1924 -3.43193
10 1 0 12.3239 26.1924 -3.42768
11 1 4.21416 9.89091 26.181 -3.43139
12 1 2.80944 12.3239 26.1924 -3.425
131 1 4.21416 0.158785 26.1354 -3.40157
133 1 7.0236 0.158785 26.1354 -3.3983
135 1 1.40472 0.158785 26.1354 -3.39764
137 1 5.61888 2.59181 26.1468 -3.41387
138 1 0 2.59181 26.1468 -3.42829
139 1 2.80944 2.59181 26.1468 -3.39741
140 1 5.61888 5.81468 30.8164 -3.35104
141 1 0 5.81468 30.8164 -3.35104
142 1 7.0236 8.24771 30.8277 -3.35103
143 1 1.40472 8.24771 30.8277 -3.35103
144 1 4.21416 8.24771 30.8277 -3.35103
145 1 2.80944 5.81468 30.8164 -3.35104
146 1 7.0236 1.77021 28.4702 -3.35207
147 1 1.40472 1.77021 28.4702 -3.35207
148 1 4.21416 1.77021 28.4702 -3.35207
149 1 7.0236 6.63627 28.493 -3.35105
150 1 1.40472 6.63627 28.493 -3.35104
151 1 5.61888 4.20324 28.4816 -3.35108
152 1 0 4.20324 28.4816 -3.35108
153 1 4.21416 6.63627 28.493 -3.35104
154 1 2.80944 4.20324 28.4816 -3.35108
155 1 5.61888 9.06931 28.5044 -3.35104
156 1 0 9.06931 28.5044 -3.35104
157 1 7.0236 11.5023 28.5158 -3.35223
158 1 1.40472 11.5023 28.5158 -3.35223
159 1 4.21416 11.5023 28.5158 -3.35223
160 1 2.80944 9.06931 28.5044 -3.35104
161 1 2.80944 0.94862 30.7936 -3.3559
162 1 2.80944 13.9354 28.5271 -3.34153
163 1 0 0.94862 30.7936 -3.3559
164 1 0 13.9354 28.5271 -3.34154
165 1 5.61888 0.94862 30.7936 -3.3559
166 1 5.61888 13.9354 28.5271 -3.34153
167 1 7.0236 3.38164 30.805 -3.34972
168 1 1.40472 3.38164 30.805 -3.34972
169 1 4.21416 3.38164 30.805 -3.34972
180 1 4.21416 13.1138 30.8505 -3.35589
181 1 5.61888 10.6807 30.8392 -3.34972
182 1 0 10.6807 30.8392 -3.34973
184 1 7.0236 13.1138 30.8505 -3.3559
186 1 1.40472 13.1138 30.8505 -3.35589
187 1 2.80944 10.6807 30.8392 -3.34972
170 1 5.61888 7.42612 33.1512 -3.35104
171 1 0 7.42612 33.1512 -3.35104
172 1 7.0236 9.85914 33.1626 -3.35108
173 1 1.40472 9.85914 33.1626 -3.35108
174 1 4.21416 9.85914 33.1626 -3.35108
175 1 2.80944 7.42612 33.1512 -3.35104
176 1 5.61888 12.2922 33.1739 -3.35206
177 1 0 12.2922 33.1739 -3.35206
178 1 2.80944 12.2922 33.1739 -3.35206
179 1 4.21416 0.127019 33.117 -3.34154
183 1 7.0236 0.127019 33.117 -3.34154
185 1 1.40472 0.127019 33.117 -3.34154
188 1 5.61888 2.56006 33.1284 -3.35222
189 1 0 2.56006 33.1284 -3.35222
190 1 7.0236 4.99308 33.1397 -3.35105
191 1 1.40472 4.99308 33.1397 -3.35104
192 1 4.21416 4.99308 33.1397 -3.35104
193 1 2.80944 2.56006 33.1284 -3.35222
194 1 5.61888 12.2604 40.1555 -2.97112
195 1 0 12.2604 40.1555 -2.97112
196 1 2.80944 12.2604 40.1555 -2.97111
197 1 7.0236 9.82739 40.1441 -2.97446
198 1 1.40472 9.82739 40.1441 -2.97446
199 1 4.21416 9.82739 40.1441 -2.97446
200 1 5.61888 5.78293 37.7979 -3.43976
201 1 0 5.78293 37.7979 -3.43976
202 1 7.0236 8.21595 37.8093 -3.43975
203 1 1.40472 8.21595 37.8093 -3.43975
204 1 4.21416 8.21595 37.8093 -3.43975
205 1 2.80944 5.78293 37.7979 -3.43976
206 1 4.21416 0.095268 40.0985 -2.9788
207 1 4.21416 13.082 37.8321 -3.44396
208 1 5.61888 2.52829 40.11 -2.97213
209 1 0 2.52829 40.11 -2.97213
210 1 5.61888 10.649 37.8207 -3.43844
211 1 0 10.649 37.8207 -3.43844
212 1 7.0236 0.095268 40.0985 -2.97881
213 1 7.0236 13.082 37.8321 -3.44396
214 1 1.40472 0.095268 40.0985 -2.97881
215 1 1.40472 13.082 37.8321 -3.44396
216 1 2.80944 2.52829 40.11 -2.97213
217 1 2.80944 10.649 37.8207 -3.43844
218 1 7.0236 4.96133 40.1213 -2.97443
219 1 1.40472 4.96133 40.1213 -2.97443
220 1 5.61888 7.39435 40.1327 -2.97441
221 1 0 7.39435 40.1327 -2.97442
222 1 4.21416 4.96133 40.1213 -2.97442
223 1 2.80944 7.39435 40.1327 -2.97441
224 1 5.61888 9.03756 35.4859 -3.35104
225 1 0 9.03756 35.4859 -3.35105
226 1 7.0236 11.4706 35.4973 -3.35223
227 1 1.40472 11.4706 35.4973 -3.35223
228 1 4.21416 11.4706 35.4973 -3.35223
229 1 2.80944 9.03756 35.4859 -3.35104
230 1 2.80944 0.916869 37.7751 -3.4418
231 1 2.80944 13.9036 35.5087 -3.34154
232 1 0 0.916869 37.7751 -3.44181
233 1 0 13.9036 35.5087 -3.34155
234 1 5.61888 0.916869 37.7751 -3.4418
235 1 5.61888 13.9036 35.5087 -3.34154
236 1 7.0236 3.34989 37.7865 -3.43844
237 1 1.40472 3.34989 37.7865 -3.43843
238 1 4.21416 3.34989 37.7865 -3.43843
239 1 7.0236 1.73846 35.4518 -3.35208
240 1 1.40472 1.73846 35.4518 -3.35207
241 1 4.21416 1.73846 35.4518 -3.35207
242 1 7.0236 6.60452 35.4745 -3.35104
243 1 1.40472 6.60452 35.4745 -3.35104
244 1 5.61888 4.17149 35.4632 -3.35108
245 1 0 4.17149 35.4632 -3.35108
246 1 4.21416 6.60452 35.4745 -3.35104
247 1 2.80944 4.17149 35.4632 -3.35108
