ITEM: TIMESTEP
251
ITEM: NUMBER OF ATOMS
14
ITEM: BOX BOUNDS ff ff ff
0.0000000000000000e+00 1.8000000000000000e+01
0.0000000000000000e+00 1.8000000000000000e+01
0.0000000000000000e+00 1.8000000000000000e+01
ITEM: ATOMS id type x y z c_peatom 
2 1 7.63067 8.52821 8.27783 -4.37283 
8 2 8.65239 8.52342 6.67853 -4.44722 
1 1 10.4102 7.65878 7.39234 -5.5703 
9 2 11.6108 8.72713 8.19145 -3.45508 
14 2 10.4696 6.62952 8.909 -3.47003 
10 2 7.92879 10.4425 8.28105 -4.47765 
3 1 9.06574 10.3112 6.83499 -4.00563 
4 1 8.71238 8.32337 11.1155 -5.52367 
6 1 11.2905 7.9777 9.98272 -6.42084 
13 2 10.0757 7.02655 11.1398 -3.27356 
7 2 9.34224 8.61629 9.16096 -4.45221 
11 2 8.22234 10.2425 11.0176 -3.52858 
5 1 9.37384 10.5738 9.68841 -5.36067 
12 2 10.3321 9.33288 11.1018 -3.6766 
