LAMMPS (30 Nov 2020)
  using 1 OpenMP thread(s) per MPI task
Reading data file ...
  orthogonal box = (0.0000000 0.0000000 0.0000000) to (18.000000 18.000000 18.000000)
  1 by 1 by 2 MPI processor grid
  reading atoms ...
  16 atoms
  read_data CPU = 0.002 seconds
Reading tersoff/zbl potential file /sandbox/vkolluru/Fantastx/examples/TiO2_clusters/Ti-O.tersoff.zbl with DATE: 2018-05-16
WARNING: Using 'neigh_modify every 1 delay 0 check yes' setting during minimization (../min.cpp:188)
Neighbor list info ...
  update every 1 steps, delay 0 steps, check yes
  max neighbors/atom: 1000, page size: 100000
  master list distance cutoff = 5.35
  ghost atom cutoff = 5.35
  binsize = 2.675, bins = 7 7 7
  1 neighbor lists, perpetual/occasional/extra = 1 0 0
  (1) pair tersoff/zbl, perpetual
      attributes: full, newton on
      pair build: full/bin/atomonly
      stencil: full/bin/3d
      bin: standard
Setting up cg style minimization ...
  Unit style    : metal
  Current step  : 0
Per MPI rank memory allocation (min/avg/max) = 4.421 | 4.421 | 4.421 Mbytes
Step Temp E_pair E_mol TotEng Press 
       0            0   -20.426209            0   -20.426209    24104.389 
       1            0   -33.298721            0   -33.298721    17487.841 
Loop time of 0.000204576 on 2 procs for 1 steps with 16 atoms

35.9% CPU use with 2 MPI tasks x 1 OpenMP threads

Minimization stats:
  Stopping criterion = max force evaluations
  Energy initial, next-to-last, final = 
     -20.4262086024265  -20.4262086024265  -33.2987205280482
  Force two-norm initial, final = 82.537876 46.211096
  Force max component initial, final = 38.547788 16.503393
  Final line search alpha, max atom move = 0.0025941826 0.042812814
  Iterations, force evaluations = 1 1

MPI task timing breakdown:
Section |  min time  |  avg time  |  max time  |%varavg| %total
---------------------------------------------------------------
Pair    | 6.7834e-05 | 0.00010042 | 0.000133   |   0.0 | 49.09
Neigh   | 0          | 0          | 0          |   0.0 |  0.00
Comm    | 1.0233e-05 | 4.294e-05  | 7.5646e-05 |   0.0 | 20.99
Output  | 0          | 0          | 0          |   0.0 |  0.00
Modify  | 0          | 0          | 0          |   0.0 |  0.00
Other   |            | 6.122e-05  |            |       | 29.93

Nlocal:        8.00000 ave          10 max           6 min
Histogram: 1 0 0 0 0 0 0 0 0 1
Nghost:        8.00000 ave          10 max           6 min
Histogram: 1 0 0 0 0 0 0 0 0 1
Neighs:         0.00000 ave           0 max           0 min
Histogram: 2 0 0 0 0 0 0 0 0 0
FullNghs:      115.000 ave         145 max          85 min
Histogram: 1 0 0 0 0 0 0 0 0 1

Total # of neighbors = 230
Ave neighs/atom = 14.375000
Neighbor list builds = 0
Dangerous builds = 0
WARNING: Using 'neigh_modify every 1 delay 0 check yes' setting during minimization (../min.cpp:188)
Setting up cg style minimization ...
  Unit style    : metal
  Current step  : 1
Per MPI rank memory allocation (min/avg/max) = 4.421 | 4.421 | 4.421 Mbytes
Step Temp E_pair E_mol TotEng Press 
       1            0   -33.298721            0   -33.298721    17487.841 
     677            0   -68.987964            0   -68.987964   -6.9096398 
Loop time of 0.150852 on 2 procs for 676 steps with 16 atoms

98.2% CPU use with 2 MPI tasks x 1 OpenMP threads

Minimization stats:
  Stopping criterion = max force evaluations
  Energy initial, next-to-last, final = 
     -33.2987205280482  -68.9879643291648  -68.9879643291648
  Force two-norm initial, final = 46.211096 0.10327237
  Force max component initial, final = 16.503393 0.036825059
  Final line search alpha, max atom move = 0.12500000 0.0046031324
  Iterations, force evaluations = 676 3002

MPI task timing breakdown:
Section |  min time  |  avg time  |  max time  |%varavg| %total
---------------------------------------------------------------
Pair    | 0.052149   | 0.093754   | 0.13536    |  13.6 | 62.15
Neigh   | 1.7527e-05 | 1.9502e-05 | 2.1476e-05 |   0.0 |  0.01
Comm    | 0.0069355  | 0.049053   | 0.091171   |  19.0 | 32.52
Output  | 0          | 0          | 0          |   0.0 |  0.00
Modify  | 0          | 0          | 0          |   0.0 |  0.00
Other   |            | 0.008025   |            |       |  5.32

Nlocal:        8.00000 ave           9 max           7 min
Histogram: 1 0 0 0 0 0 0 0 0 1
Nghost:        8.00000 ave           9 max           7 min
Histogram: 1 0 0 0 0 0 0 0 0 1
Neighs:         0.00000 ave           0 max           0 min
Histogram: 2 0 0 0 0 0 0 0 0 0
FullNghs:      98.0000 ave         112 max          84 min
Histogram: 1 0 0 0 0 0 0 0 0 1

Total # of neighbors = 196
Ave neighs/atom = 12.250000
Neighbor list builds = 3
Dangerous builds = 0
WARNING: Using 'neigh_modify every 1 delay 0 check yes' setting during minimization (../min.cpp:188)
Setting up cg style minimization ...
  Unit style    : metal
  Current step  : 677
Per MPI rank memory allocation (min/avg/max) = 4.421 | 4.421 | 4.421 Mbytes
Step Temp E_pair E_mol TotEng Press 
     677            0   -68.987964            0   -68.987964   -6.9096398 
    1177            0   -68.987964            0   -68.987964   -6.9096398 
Loop time of 0.147715 on 2 procs for 500 steps with 16 atoms

98.3% CPU use with 2 MPI tasks x 1 OpenMP threads

Minimization stats:
  Stopping criterion = max force evaluations
  Energy initial, next-to-last, final = 
     -68.9879643291649  -68.9879643291649  -68.9879643291649
  Force two-norm initial, final = 0.10327237 0.10327237
  Force max component initial, final = 0.036825059 0.036825059
  Final line search alpha, max atom move = 0.12500000 0.0046031324
  Iterations, force evaluations = 500 3000

MPI task timing breakdown:
Section |  min time  |  avg time  |  max time  |%varavg| %total
---------------------------------------------------------------
Pair    | 0.049123   | 0.091056   | 0.13299    |  13.9 | 61.64
Neigh   | 0          | 0          | 0          |   0.0 |  0.00
Comm    | 0.0050173  | 0.04737    | 0.089723   |  19.5 | 32.07
Output  | 0          | 0          | 0          |   0.0 |  0.00
Modify  | 0          | 0          | 0          |   0.0 |  0.00
Other   |            | 0.009289   |            |       |  6.29

Nlocal:        8.00000 ave           9 max           7 min
Histogram: 1 0 0 0 0 0 0 0 0 1
Nghost:        8.00000 ave           9 max           7 min
Histogram: 1 0 0 0 0 0 0 0 0 1
Neighs:         0.00000 ave           0 max           0 min
Histogram: 2 0 0 0 0 0 0 0 0 0
FullNghs:      95.0000 ave         109 max          81 min
Histogram: 1 0 0 0 0 0 0 0 0 1

Total # of neighbors = 190
Ave neighs/atom = 11.875000
Neighbor list builds = 0
Dangerous builds = 0
Total wall time: 0:00:00
