ITEM: TIMESTEP
1177
ITEM: NUMBER OF ATOMS
16
ITEM: BOX BOUNDS ff ff ff
0.0000000000000000e+00 1.8000000000000000e+01
0.0000000000000000e+00 1.8000000000000000e+01
0.0000000000000000e+00 1.8000000000000000e+01
ITEM: ATOMS id type x y z c_peatom
1 1 9.37372 7.51698 5.80194 -4.89784
5 1 7.42383 10.3586 5.79659 -6.12357
8 2 7.63239 8.50506 6.23924 -3.53236
12 2 8.80712 6.87757 7.35278 -3.44663
6 1 8.6923 8.86633 8.00878 -6.96138
2 1 11.6294 8.43134 7.70604 -3.87073
15 2 10.2462 8.99282 6.65944 -4.38891
13 2 8.68861 10.6151 7.13332 -3.24541
14 2 6.12569 10.5683 6.82762 -3.01169
16 2 9.84168 8.97637 11.5335 -3.4099
7 2 10.3889 8.14158 9.01602 -4.32749
4 1 8.03232 9.3802 11.1778 -7.7381
11 2 8.94154 10.293 9.46346 -3.60088
3 1 10.6153 9.73401 10.0458 -5.09358
9 2 7.49417 8.26657 12.3897 -2.58702
10 2 8.04385 10.7606 12.147 -2.75247
