ITEM: TIMESTEP
258
ITEM: NUMBER OF ATOMS
18
ITEM: BOX BOUNDS ff ff ff
0.0000000000000000e+00 1.8000000000000000e+01
0.0000000000000000e+00 1.8000000000000000e+01
0.0000000000000000e+00 1.8000000000000000e+01
ITEM: ATOMS id type x y z c_peatom
1 1 6.21837 8.80088 8.33425 -5.1751
2 1 8.8213 7.50376 8.14542 -6.78261
8 2 6.8658 7.11295 8.12961 -3.35564
3 1 11.6113 8.28552 7.99708 -6.30222
9 2 10.2955 7.65442 6.81512 -3.13964
10 2 10.5727 6.68542 8.87844 -3.48929
11 2 8.09753 9.36634 8.19066 -4.10474
4 1 9.74043 10.6403 8.03286 -5.13829
12 2 11.4032 10.0603 7.33117 -3.37419
13 2 8.64561 7.48917 10.1263 -3.72502
17 2 6.41342 8.85721 10.133 -3.44017
5 1 10.557 7.31296 10.6887 -5.83209
14 2 10.134 8.92851 9.13291 -4.39946
16 2 12.1181 8.33293 10.1034 -3.57894
6 1 8.31426 9.41759 10.2461 -6.42077
7 1 11.2151 10.0358 10.6053 -5.11428
15 2 9.95122 9.02909 11.5071 -3.904
18 2 9.6595 11.0413 9.89351 -3.78898
