ITEM: TIMESTEP
574
ITEM: NUMBER OF ATOMS
18
ITEM: BOX BOUNDS ff ff ff
0.0000000000000000e+00 1.8000000000000000e+01
0.0000000000000000e+00 1.8000000000000000e+01
0.0000000000000000e+00 1.8000000000000000e+01
ITEM: ATOMS id type x y z c_peatom
8 2 10.0704 8.34709 5.01706 -2.78631
1 1 6.95226 8.58314 7.09038 -6.51262
9 2 7.53406 8.79573 8.90277 -3.83035
10 2 8.82122 7.64042 7.04774 -3.46255
11 2 10.9424 8.19656 7.72136 -3.14898
2 1 9.42784 7.89437 8.92851 -6.15735
12 2 5.46834 9.44251 7.24393 -2.72853
3 1 8.12267 10.5875 8.82485 -5.61807
13 2 8.04123 10.0715 6.77411 -3.46106
4 1 9.89334 9.18325 6.49308 -7.1437
14 2 9.82682 9.87254 8.82724 -3.8701
5 1 8.50067 7.55362 11.7827 -2.89195
6 1 11.1212 7.18394 11.311 -3.90422
15 2 11.1522 8.41055 10.0009 -4.0648
16 2 8.29553 10.6718 10.7251 -3.17933
7 1 10.0158 9.86734 10.9247 -7.1975
17 2 11.115 11.1481 11.2509 -2.74475
18 2 9.97308 8.27097 12.2986 -5.29367
