ITEM: TIMESTEP
647
ITEM: NUMBER OF ATOMS
17
ITEM: BOX BOUNDS ff ff ff
0.0000000000000000e+00 1.8000000000000000e+01
0.0000000000000000e+00 1.8000000000000000e+01
0.0000000000000000e+00 1.8000000000000000e+01
ITEM: ATOMS id type x y z c_peatom 
16 2 8.53552 9.94477 5.09447 -2.48275 
3 1 7.00412 7.77232 8.60249 -7.53034 
9 2 8.53925 8.97583 8.94372 -4.02838 
11 2 8.44926 6.41834 8.73616 -3.55248 
15 2 7.91351 7.71842 6.84503 -2.80109 
6 1 8.67386 9.48631 6.7585 -9.30504 
7 2 6.77323 9.56652 7.60017 -3.1177 
8 2 8.44975 11.1358 7.72765 -2.89884 
13 2 10.3661 9.17215 6.95129 -2.4808 
4 1 8.24455 6.09202 10.4567 -4.56942 
14 2 6.73619 6.98036 10.4355 -3.54353 
2 1 9.41202 8.88275 10.6842 -4.73345 
5 1 7.41438 10.5366 9.2611 -6.56154 
10 2 6.25256 9.13558 9.79541 -3.04956 
17 2 8.36883 10.4579 11.0764 -4.26961 
1 1 9.8252 11.5374 10.6949 -4.10966 
12 2 10.7191 10.1006 10.1781 -4.17656 
