ITEM: TIMESTEP
224
ITEM: NUMBER OF ATOMS
18
ITEM: BOX BOUNDS ff ff ff
0.0000000000000000e+00 1.8000000000000000e+01
0.0000000000000000e+00 1.8000000000000000e+01
0.0000000000000000e+00 1.8000000000000000e+01
ITEM: ATOMS id type x y z c_peatom
1 1 6.05209 8.81988 8.46726 -5.17064
2 1 8.56624 7.41785 8.17066 -5.83938
8 2 6.6656 7.09857 8.46598 -3.48717
3 1 11.6209 8.18437 7.82858 -6.76151
9 2 11.1132 8.10869 6.1992 -2.82674
10 2 10.5406 6.64167 8.53506 -3.44037
15 2 10.0115 8.81819 8.99904 -4.29906
11 2 7.93255 9.30653 8.1854 -4.08428
4 1 9.69573 10.5576 7.88188 -4.85202
12 2 11.6033 10.2315 8.1666 -3.64087
13 2 8.5463 7.41534 10.0763 -3.90089
5 1 10.5136 7.26549 10.4244 -5.85329
16 2 12.0558 8.34212 9.93821 -3.60084
6 1 8.29602 9.37988 10.2091 -6.48313
17 2 6.33218 9.08203 10.2363 -3.42899
18 2 9.51871 10.9768 9.66801 -3.96347
7 1 11.2692 10.1102 10.1905 -5.79492
14 2 10.0399 9.00959 11.2851 -3.6054
