ITEM: TIMESTEP
621
ITEM: NUMBER OF ATOMS
16
ITEM: BOX BOUNDS ff ff ff
0.0000000000000000e+00 1.8000000000000000e+01
0.0000000000000000e+00 1.8000000000000000e+01
0.0000000000000000e+00 1.8000000000000000e+01
ITEM: ATOMS id type x y z c_peatom
2 1 8.40713 7.8675 8.37231 -6.01279
4 1 6.03354 6.6059 7.67025 -3.23136
11 2 6.92906 7.79594 6.97313 -4.44923
7 1 11.7395 8.31731 7.45331 -5.0446
9 2 10.3103 7.00116 7.80314 -3.88909
15 2 8.82378 9.67835 8.12306 -4.08305
12 2 11.0596 9.96809 7.6878 -3.43809
16 2 7.30021 8.68476 9.89637 -3.93681
6 1 8.4753 8.46497 11.4455 -4.79308
1 1 10.9802 6.71253 9.53052 -4.55812
13 2 11.9901 8.28978 9.31123 -4.01383
14 2 9.60592 7.97418 9.98459 -4.59685
5 1 7.56113 10.4704 9.24949 -5.01599
10 2 9.10997 11.2545 9.87007 -3.37931
3 1 10.3688 9.77038 9.56503 -7.05787
8 2 9.76404 9.7269 11.5432 -3.34187
