ITEM: TIMESTEP
897
ITEM: NUMBER OF ATOMS
18
ITEM: BOX BOUNDS ff ff ff
0.0000000000000000e+00 1.8000000000000000e+01
0.0000000000000000e+00 1.8000000000000000e+01
0.0000000000000000e+00 1.8000000000000000e+01
ITEM: ATOMS id type x y z c_peatom
6 1 7.46972 8.99805 7.72393 -6.94184
18 2 6.24667 8.09616 8.50423 -2.77139
8 2 8.9928 7.83298 7.07687 -3.60684
9 2 11.0084 8.90909 8.62644 -3.47581
16 2 11.2282 7.31539 6.99078 -3.05265
5 1 10.067 7.0918 8.6444 -7.03465
4 1 8.25818 11.673 7.32317 -4.06684
10 2 6.80165 10.855 7.83143 -3.78365
14 2 9.23028 10.1821 7.92458 -4.14165
2 1 10.4626 9.03225 6.76114 -5.54146
7 1 8.75178 7.25233 11.1362 -5.75426
17 2 8.75856 6.07572 9.64186 -3.15042
13 2 8.53249 8.34113 9.33691 -3.89323
15 2 10.41 7.77887 10.5329 -3.56131
11 2 8.85353 9.08489 11.6112 -3.14012
12 2 7.93874 10.8487 10.4593 -4.36858
1 1 9.62307 9.7809 9.94963 -6.75778
3 1 8.49221 12.3886 10.2114 -3.31532
