ITEM: TIMESTEP
1138
ITEM: NUMBER OF ATOMS
17
ITEM: BOX BOUNDS ff ff ff
0.0000000000000000e+00 1.8000000000000000e+01
0.0000000000000000e+00 1.8000000000000000e+01
0.0000000000000000e+00 1.8000000000000000e+01
ITEM: ATOMS id type x y z c_peatom
3 1 7.67058 6.86554 8.03782 -6.76538
10 2 6.36846 8.16944 7.53601 -3.1597
4 1 10.0632 8.50478 8.36556 -5.60187
12 2 9.59738 6.84923 7.72396 -3.30419
1 1 7.27 9.77138 8.06907 -6.15145
8 2 7.75154 11.8738 8.04606 -4.54725
2 1 9.52949 11.4163 7.96344 -3.86019
11 2 9.05653 9.81462 7.20821 -4.24727
9 2 7.3014 6.36456 9.61052 -2.85525
13 2 8.2999 8.50031 9.10703 -4.21186
14 2 10.1902 8.11999 10.3544 -3.80906
6 1 8.7581 9.34051 10.98 -5.31834
15 2 7.11571 10.2464 10.0223 -4.15969
17 2 10.1455 10.52 11.0659 -3.67222
7 1 11.5858 9.35482 10.8263 -6.0508
5 1 7.48553 12.0076 9.85984 -3.91349
16 2 11.6768 8.8684 12.4371 -2.97015
