ITEM: TIMESTEP
773
ITEM: NUMBER OF ATOMS
18
ITEM: BOX BOUNDS ff ff ff
0.0000000000000000e+00 1.8000000000000000e+01
0.0000000000000000e+00 1.8000000000000000e+01
0.0000000000000000e+00 1.8000000000000000e+01
ITEM: ATOMS id type x y z c_peatom
1 1 6.08478 8.91072 8.5128 -5.17716
2 1 8.56469 7.44345 8.22007 -5.83681
8 2 6.65272 7.17367 8.51927 -3.47557
3 1 11.6146 8.21658 7.82581 -6.75384
9 2 11.0701 8.16338 6.20768 -2.8318
10 2 10.5465 6.66993 8.56206 -3.42857
12 2 7.96372 9.34335 8.1968 -4.07693
4 1 9.71279 10.6202 7.9267 -4.85084
13 2 11.6201 10.2695 8.1744 -3.64964
14 2 8.56757 7.47225 10.1182 -3.91499
5 1 10.543 7.31271 10.4458 -5.85469
11 2 10.0378 8.85143 9.019 -4.29036
15 2 12.0917 8.36907 9.93198 -3.59895
6 1 8.34379 9.43615 10.2342 -6.48123
16 2 6.37787 9.1921 10.2768 -3.43007
7 1 11.3278 10.1437 10.1968 -5.7955
17 2 9.57016 11.0281 9.71653 -3.97573
18 2 10.0923 9.06326 11.3025 -3.60747
