ITEM: TIMESTEP
643
ITEM: NUMBER OF ATOMS
18
ITEM: BOX BOUNDS ff ff ff
0.0000000000000000e+00 1.8000000000000000e+01
0.0000000000000000e+00 1.8000000000000000e+01
0.0000000000000000e+00 1.8000000000000000e+01
ITEM: ATOMS id type x y z c_peatom 
8 2 6.35572 8.89404 6.40979 -2.6518 
10 2 8.08606 7.01142 8.0084 -3.44202 
1 1 7.66684 8.86374 7.53429 -7.74474 
3 1 11.7633 8.32938 6.35315 -3.9876 
6 1 9.85669 7.24193 8.28583 -4.67377 
16 2 9.89057 8.49623 6.8304 -4.20525 
15 2 8.48975 10.6688 7.57194 -3.32008 
2 1 10.3713 10.1839 7.89657 -5.98062 
12 2 12.2045 9.44304 7.59508 -3.93033 
9 2 9.49774 8.92334 9.21186 -4.16394 
4 1 8.12901 10.7798 9.66579 -8.79005 
13 2 7.81234 10.5581 11.3556 -2.53182 
11 2 6.83169 9.47712 9.08776 -3.03695 
7 1 10.8265 9.454 10.5929 -4.63133 
17 2 10.2266 11.041 9.72055 -3.67929 
14 2 7.32543 12.2893 9.45382 -2.5682 
5 1 9.48668 7.88763 12.3324 -3.14498 
18 2 9.81695 9.50954 12.1716 -4.89445 
