ITEM: TIMESTEP
274
ITEM: NUMBER OF ATOMS
18
ITEM: BOX BOUNDS ff ff ff
0.0000000000000000e+00 1.8000000000000000e+01
0.0000000000000000e+00 1.8000000000000000e+01
0.0000000000000000e+00 1.8000000000000000e+01
ITEM: ATOMS id type x y z c_peatom 
3 1 8.99657 7.20498 7.73757 -7.33808 
11 2 7.31598 8.20323 8.38578 -4.07341 
1 1 6.26616 6.44943 8.74241 -4.70516 
10 2 9.10063 6.19718 6.32423 -2.6124 
13 2 10.5638 7.00851 8.73875 -3.08757 
6 1 8.07282 10.0066 8.33986 -4.46978 
9 2 9.66548 9.14107 7.73364 -3.79053 
8 2 6.02565 7.21165 10.3315 -3.67631 
14 2 8.09404 6.21353 9.22668 -3.73903 
4 1 7.85133 7.91301 10.3742 -6.05941 
12 2 9.66442 8.51284 11.0851 -3.46718 
2 1 10.659 8.81889 9.37471 -7.45392 
17 2 12.3769 8.88279 9.19703 -2.63795 
16 2 7.65396 9.85637 10.226 -4.18293 
7 1 9.07223 10.4281 11.3774 -5.56274 
5 1 10.0355 11.9907 9.34799 -4.20866 
15 2 10.724 10.6266 10.3959 -4.05179 
18 2 8.85504 12.2431 10.6066 -3.84085 
